LAMMPS data file for Nanoparticles
480 atoms
2 atom types
-17.724538509055154 17.724538509055154 xlo xhi
-17.724538509055154 17.724538509055154 ylo yhi
-0.5 0.5 zlo zhi

Atoms

1 1 1 1 -5.10041 -5.94821 0 0 0 0
 2 1 1 1 -5.40663 -5.20913 0 0 0 0
 3 1 1 1 -5.71284 -4.47005 0 0 0 0
 4 1 1 1 -6.01906 -3.73098 0 0 0 0
 5 1 1 1 -6.32527 -2.9919 0 0 0 0
 6 1 1 1 -8.05672 -7.17306 0 0 0 0
 7 1 1 1 -8.36293 -6.43399 0 0 0 0
 8 1 1 1 -8.66915 -5.69491 0 0 0 0
 9 1 1 1 -8.97536 -4.95583 0 0 0 0
 10 1 1 1 -9.28157 -4.21676 0 0 0 0
 11 1 1 1 -5.83949 -6.25442 0 0 0 0
 12 1 1 1 -6.57857 -6.56063 0 0 0 0
 13 1 1 1 -7.31764 -6.86685 0 0 0 0
 14 1 1 1 -7.06435 -3.29812 0 0 0 0
 15 1 1 1 -7.80342 -3.60433 0 0 0 0
 16 1 1 1 -8.5425 -3.91054 0 0 0 0
 17 1 1 1 9.3944 -16.4062 0 0 0 0
 18 1 1 1 8.59442 -16.4014 0 0 0 0
 19 1 1 1 7.79443 -16.3965 0 0 0 0
 20 1 1 1 6.99444 -16.3917 0 0 0 0
 21 1 1 1 6.19446 -16.3869 0 0 0 0
 22 1 1 1 9.37509 15.843 0 0 -1 0
 23 1 1 1 8.57511 15.8478 0 0 -1 0
 24 1 1 1 7.77512 15.8526 0 0 -1 0
 25 1 1 1 6.97514 15.8574 0 0 -1 0
 26 1 1 1 6.17515 15.8623 0 0 -1 0
 27 1 1 1 9.38957 -17.2062 0 0 0 0
 28 1 1 1 9.38475 17.4429 0 0 -1 0
 29 1 1 1 9.37992 16.6429 0 0 -1 0
 30 1 1 1 6.18963 -17.1869 0 0 0 0
 31 1 1 1 6.18481 17.4622 0 0 -1 0
 32 1 1 1 6.17998 16.6622 0 0 -1 0
 33 1 1 1 -3.551 16.9939 0 0 0 0
 34 1 1 1 -3.99381 16.3276 0 0 0 0
 35 1 1 1 -4.43663 15.6613 0 0 0 0
 36 1 1 1 -4.87944 14.9951 0 0 0 0
 37 1 1 1 -5.32226 14.3288 0 0 0 0
 38 1 1 1 -0.885922 15.2226 0 0 0 0
 39 1 1 1 -1.32874 14.5563 0 0 0 0
 40 1 1 1 -1.77155 13.8901 0 0 0 0
 41 1 1 1 -2.21437 13.2238 0 0 0 0
 42 1 1 1 -2.65718 12.5575 0 0 0 0
 43 1 1 1 -2.88473 16.551 0 0 0 0
 44 1 1 1 -2.21846 16.1082 0 0 0 0
 45 1 1 1 -1.55219 15.6654 0 0 0 0
 46 1 1 1 -4.65599 13.886 0 0 0 0
 47 1 1 1 -3.98972 13.4432 0 0 0 0
 48 1 1 1 -3.32345 13.0003 0 0 0 0
 49 1 1 1 10.5976 -4.77717 0 0 0 0
 50 1 1 1 10.2515 -4.05589 0 0 0 0
 51 1 1 1 9.90549 -3.33461 0 0 0 0
 52 1 1 1 9.55943 -2.61333 0 0 0 0
 53 1 1 1 9.21338 -1.89205 0 0 0 0
 54 1 1 1 7.71249 -6.1614 0 0 0 0
 55 1 1 1 7.36643 -5.44012 0 0 0 0
 56 1 1 1 7.02037 -4.71884 0 0 0 0
 57 1 1 1 6.67432 -3.99756 0 0 0 0
 58 1 1 1 6.32826 -3.27628 0 0 0 0
 59 1 1 1 9.87633 -5.12323 0 0 0 0
 60 1 1 1 9.15505 -5.46929 0 0 0 0
 61 1 1 1 8.43377 -5.81534 0 0 0 0
 62 1 1 1 8.4921 -2.23811 0 0 0 0
 63 1 1 1 7.77082 -2.58417 0 0 0 0
 64 1 1 1 7.04954 -2.93022 0 0 0 0
 65 1 1 1 -17.2389 -10.8282 0 0 0 0
 66 1 1 1 -16.9905 -11.5887 0 0 0 0
 67 1 1 1 -16.7421 -12.3491 0 0 0 0
 68 1 1 1 -16.4937 -13.1096 0 0 0 0
 69 1 1 1 -16.2453 -13.8701 0 0 0 0
 70 1 1 1 -14.197 -9.83465 0 0 0 0
 71 1 1 1 -13.9486 -10.5951 0 0 0 0
 72 1 1 1 -13.7002 -11.3556 0 0 0 0
 73 1 1 1 -13.4518 -12.116 0 0 0 0
 74 1 1 1 -13.2034 -12.8765 0 0 0 0
 75 1 1 1 -16.4784 -10.5798 0 0 0 0
 76 1 1 1 -15.7179 -10.3314 0 0 0 0
 77 1 1 1 -14.9575 -10.083 0 0 0 0
 78 1 1 1 -15.4848 -13.6217 0 0 0 0
 79 1 1 1 -14.7244 -13.3733 0 0 0 0
 80 1 1 1 -13.9639 -13.1249 0 0 0 0
 81 1 1 1 -11.7675 17.0523 0 0 0 0
 82 1 1 1 -12.2878 17.66 0 0 0 0
 83 1 1 1 -12.808 -17.1813 0 0 1 0
 84 1 1 1 -13.3283 -16.5736 0 0 1 0
 85 1 1 1 -13.8486 -15.9659 0 0 1 0
 86 1 1 1 -14.1983 14.9712 0 0 0 0
 87 1 1 1 -14.7186 15.5789 0 0 0 0
 88 1 1 1 -15.2389 16.1866 0 0 0 0
 89 1 1 1 -15.7592 16.7943 0 0 0 0
 90 1 1 1 -16.2794 17.4021 0 0 0 0
 91 1 1 1 -12.3752 16.532 0 0 0 0
 92 1 1 1 -12.9829 16.0118 0 0 0 0
 93 1 1 1 -13.5906 15.4915 0 0 0 0
 94 1 1 1 -14.4563 -16.4862 0 0 1 0
 95 1 1 1 -15.064 -17.0065 0 0 1 0
 96 1 1 1 -15.6717 -17.5267 0 0 1 0
 97 1 1 1 4.38925 6.50577 0 0 0 0
 98 1 1 1 4.85858 5.85791 0 0 0 0
 99 1 1 1 5.32791 5.21004 0 0 0 0
 100 1 1 1 5.79724 4.56218 0 0 0 0
 101 1 1 1 6.26658 3.91431 0 0 0 0
 102 1 1 1 6.98071 8.38309 0 0 0 0
 103 1 1 1 7.45004 7.73523 0 0 0 0
 104 1 1 1 7.91937 7.08736 0 0 0 0
 105 1 1 1 8.3887 6.4395 0 0 0 0
 106 1 1 1 8.85803 5.79164 0 0 0 0
 107 1 1 1 5.03712 6.9751 0 0 0 0
 108 1 1 1 5.68498 7.44443 0 0 0 0
 109 1 1 1 6.33285 7.91376 0 0 0 0
 110 1 1 1 6.91444 4.38364 0 0 0 0
 111 1 1 1 7.56231 4.85297 0 0 0 0
 112 1 1 1 8.21017 5.3223 0 0 0 0
 113 1 1 1 -10.0963 -3.67125 0 0 0 0
 114 1 1 1 -10.5488 -3.01153 0 0 0 0
 115 1 1 1 -11.0013 -2.3518 0 0 0 0
 116 1 1 1 -11.4538 -1.69207 0 0 0 0
 117 1 1 1 -11.9063 -1.03234 0 0 0 0
 118 1 1 1 -12.7352 -5.48126 0 0 0 0
 119 1 1 1 -13.1877 -4.82154 0 0 0 0
 120 1 1 1 -13.6402 -4.16181 0 0 0 0
 121 1 1 1 -14.0927 -3.50208 0 0 0 0
 122 1 1 1 -14.5452 -2.84235 0 0 0 0
 123 1 1 1 -10.7561 -4.12376 0 0 0 0
 124 1 1 1 -11.4158 -4.57626 0 0 0 0
 125 1 1 1 -12.0755 -5.02876 0 0 0 0
 126 1 1 1 -12.5661 -1.48484 0 0 0 0
 127 1 1 1 -13.2258 -1.93735 0 0 0 0
 128 1 1 1 -13.8855 -2.38985 0 0 0 0
 129 1 1 1 -7.60182 3.46409 0 0 0 0
 130 1 1 1 -7.4542 2.67783 0 0 0 0
 131 1 1 1 -7.30658 1.89157 0 0 0 0
 132 1 1 1 -7.15895 1.10531 0 0 0 0
 133 1 1 1 -7.01133 0.319046 0 0 0 0
 134 1 1 1 -4.45677 4.05458 0 0 0 0
 135 1 1 1 -4.30915 3.26831 0 0 0 0
 136 1 1 1 -4.16153 2.48205 0 0 0 0
 137 1 1 1 -4.01391 1.69579 0 0 0 0
 138 1 1 1 -3.86629 0.909528 0 0 0 0
 139 1 1 1 -6.81555 3.61171 0 0 0 0
 140 1 1 1 -6.02929 3.75934 0 0 0 0
 141 1 1 1 -5.24303 3.90696 0 0 0 0
 142 1 1 1 -6.22507 0.466666 0 0 0 0
 143 1 1 1 -5.43881 0.614287 0 0 0 0
 144 1 1 1 -4.65255 0.761907 0 0 0 0
 145 1 1 1 7.64377 -8.97737 0 0 0 0
 146 1 1 1 7.03236 -8.46144 0 0 0 0
 147 1 1 1 6.42095 -7.94551 0 0 0 0
 148 1 1 1 5.80954 -7.42959 0 0 0 0
 149 1 1 1 5.19814 -6.91366 0 0 0 0
 150 1 1 1 5.58006 -11.423 0 0 0 0
 151 1 1 1 4.96865 -10.9071 0 0 0 0
 152 1 1 1 4.35724 -10.3911 0 0 0 0
 153 1 1 1 3.74584 -9.87522 0 0 0 0
 154 1 1 1 3.13443 -9.35929 0 0 0 0
 155 1 1 1 7.12784 -9.58878 0 0 0 0
 156 1 1 1 6.61191 -10.2002 0 0 0 0
 157 1 1 1 6.09599 -10.8116 0 0 0 0
 158 1 1 1 4.68221 -7.52507 0 0 0 0
 159 1 1 1 4.16628 -8.13648 0 0 0 0
 160 1 1 1 3.65036 -8.74788 0 0 0 0
 161 1 1 1 -15.3545 4.12594 0 0 0 0
 162 1 1 1 -14.9539 3.43345 0 0 0 0
 163 1 1 1 -14.5534 2.74096 0 0 0 0
 164 1 1 1 -14.1528 2.04847 0 0 0 0
 165 1 1 1 -13.7522 1.35598 0 0 0 0
 166 1 1 1 -12.5845 5.72823 0 0 0 0
 167 1 1 1 -12.184 5.03574 0 0 0 0
 168 1 1 1 -11.7834 4.34325 0 0 0 0
 169 1 1 1 -11.3828 3.65076 0 0 0 0
 170 1 1 1 -10.9823 2.95827 0 0 0 0
 171 1 1 1 -14.662 4.52651 0 0 0 0
 172 1 1 1 -13.9695 4.92708 0 0 0 0
 173 1 1 1 -13.277 5.32766 0 0 0 0
 174 1 1 1 -13.0597 1.75655 0 0 0 0
 175 1 1 1 -12.3672 2.15712 0 0 0 0
 176 1 1 1 -11.6747 2.5577 0 0 0 0
 177 1 1 1 0.904785 -6.61717 0 0 0 0
 178 1 1 1 0.355066 -6.03596 0 0 0 0
 179 1 1 1 -0.194654 -5.45474 0 0 0 0
 180 1 1 1 -0.744374 -4.87353 0 0 0 0
 181 1 1 1 -1.29409 -4.29232 0 0 0 0
 182 1 1 1 -1.42007 -8.81605 0 0 0 0
 183 1 1 1 -1.96979 -8.23484 0 0 0 0
 184 1 1 1 -2.51951 -7.65362 0 0 0 0
 185 1 1 1 -3.06922 -7.07241 0 0 0 0
 186 1 1 1 -3.61894 -6.4912 0 0 0 0
 187 1 1 1 0.323572 -7.16689 0 0 0 0
 188 1 1 1 -0.25764 -7.71661 0 0 0 0
 189 1 1 1 -0.838853 -8.26633 0 0 0 0
 190 1 1 1 -1.87531 -4.84204 0 0 0 0
 191 1 1 1 -2.45652 -5.39176 0 0 0 0
 192 1 1 1 -3.03773 -5.94148 0 0 0 0
 193 1 1 1 -16.0335 -2.03373 0 0 0 0
 194 1 1 1 -16.1909 -1.24936 0 0 0 0
 195 1 1 1 -16.3483 -0.464995 0 0 0 0
 196 1 1 1 -16.5057 0.319372 0 0 0 0
 197 1 1 1 -16.6631 1.10374 0 0 0 0
 198 1 1 1 16.2781 -2.66326 0 -1 0 0
 199 1 1 1 16.1207 -1.87889 0 -1 0 0
 200 1 1 1 15.9633 -1.09452 0 -1 0 0
 201 1 1 1 15.8059 -0.310158 0 -1 0 0
 202 1 1 1 15.6485 0.474208 0 -1 0 0
 203 1 1 1 -16.8179 -2.19111 0 0 0 0
 204 1 1 1 -17.6023 -2.34849 0 0 0 0
 205 1 1 1 17.0624 -2.50588 0 -1 0 0
 206 1 1 1 -17.4474 0.946356 0 0 0 0
 207 1 1 1 17.2173 0.788973 0 -1 0 0
 208 1 1 1 16.4329 0.631591 0 -1 0 0
 209 1 1 1 -2.17202 3.65074 0 0 0 0
 210 1 1 1 -1.40046 3.86215 0 0 0 0
 211 1 1 1 -0.628895 4.07356 0 0 0 0
 212 1 1 1 0.142666 4.28496 0 0 0 0
 213 1 1 1 0.914228 4.49637 0 0 0 0
 214 1 1 1 -3.01765 6.73699 0 0 0 0
 215 1 1 1 -2.24608 6.9484 0 0 0 0
 216 1 1 1 -1.47452 7.1598 0 0 0 0
 217 1 1 1 -0.702961 7.37121 0 0 0 0
 218 1 1 1 0.0686 7.58262 0 0 0 0
 219 1 1 1 -2.38342 4.4223 0 0 0 0
 220 1 1 1 -2.59483 5.19387 0 0 0 0
 221 1 1 1 -2.80624 5.96543 0 0 0 0
 222 1 1 1 0.702821 5.26793 0 0 0 0
 223 1 1 1 0.491414 6.03949 0 0 0 0
 224 1 1 1 0.280007 6.81106 0 0 0 0
 225 1 1 1 4.65351 -16.9761 0 0 0 0
 226 1 1 1 5.25284 -17.506 0 0 0 0
 227 1 1 1 5.85218 17.4132 0 0 -1 0
 228 1 1 1 6.45152 16.8833 0 0 -1 0
 229 1 1 1 7.05085 16.3534 0 0 -1 0
 230 1 1 1 6.77311 -14.5788 0 0 0 0
 231 1 1 1 7.37245 -15.1087 0 0 0 0
 232 1 1 1 7.97179 -15.6386 0 0 0 0
 233 1 1 1 8.57112 -16.1685 0 0 0 0
 234 1 1 1 9.17046 -16.6984 0 0 0 0
 235 1 1 1 5.18341 -16.3768 0 0 0 0
 236 1 1 1 5.71331 -15.7774 0 0 0 0
 237 1 1 1 6.24321 -15.1781 0 0 0 0
 238 1 1 1 7.58075 16.9527 0 0 -1 0
 239 1 1 1 8.11066 17.552 0 0 -1 0
 240 1 1 1 8.64056 -17.2977 0 0 0 0
 241 1 1 1 17.1777 -9.80324 0 0 0 0
 242 1 1 1 -17.4781 -9.69972 0 1 0 0
 243 1 1 1 -16.6848 -9.59621 0 1 0 0
 244 1 1 1 -15.8916 -9.49269 0 1 0 0
 245 1 1 1 -15.0983 -9.38918 0 1 0 0
 246 1 1 1 16.7636 -6.63014 0 0 0 0
 247 1 1 1 17.5569 -6.52663 0 0 0 0
 248 1 1 1 -17.0989 -6.42311 0 1 0 0
 249 1 1 1 -16.3056 -6.31959 0 1 0 0
 250 1 1 1 -15.5124 -6.21608 0 1 0 0
 251 1 1 1 17.0742 -9.00996 0 0 0 0
 252 1 1 1 16.9707 -8.21669 0 0 0 0
 253 1 1 1 16.8671 -7.42342 0 0 0 0
 254 1 1 1 -15.2018 -8.5959 0 1 0 0
 255 1 1 1 -15.3053 -7.80263 0 1 0 0
 256 1 1 1 -15.4088 -7.00935 0 1 0 0
 257 1 1 1 -9.75225 13.0397 0 0 0 0
 258 1 1 1 -10.5519 13.0162 0 0 0 0
 259 1 1 1 -11.3516 12.9927 0 0 0 0
 260 1 1 1 -12.1512 12.9692 0 0 0 0
 261 1 1 1 -12.9509 12.9457 0 0 0 0
 262 1 1 1 -9.65815 9.84113 0 0 0 0
 263 1 1 1 -10.4578 9.81761 0 0 0 0
 264 1 1 1 -11.2575 9.79408 0 0 0 0
 265 1 1 1 -12.0571 9.77056 0 0 0 0
 266 1 1 1 -12.8568 9.74703 0 0 0 0
 267 1 1 1 -9.72873 12.2401 0 0 0 0
 268 1 1 1 -9.7052 11.4404 0 0 0 0
 269 1 1 1 -9.68168 10.6408 0 0 0 0
 270 1 1 1 -12.9273 12.146 0 0 0 0
 271 1 1 1 -12.9038 11.3463 0 0 0 0
 272 1 1 1 -12.8803 10.5467 0 0 0 0
 273 1 1 1 -14.4437 -3.74952 0 0 0 0
 274 1 1 1 -13.8345 -3.23098 0 0 0 0
 275 1 1 1 -13.2253 -2.71243 0 0 0 0
 276 1 1 1 -12.6161 -2.19388 0 0 0 0
 277 1 1 1 -12.0069 -1.67534 0 0 0 0
 278 1 1 1 -16.5179 -1.31278 0 0 0 0
 279 1 1 1 -15.9087 -0.794229 0 0 0 0
 280 1 1 1 -15.2995 -0.275682 0 0 0 0
 281 1 1 1 -14.6903 0.242865 0 0 0 0
 282 1 1 1 -14.0811 0.761412 0 0 0 0
 283 1 1 1 -14.9622 -3.14034 0 0 0 0
 284 1 1 1 -15.4808 -2.53115 0 0 0 0
 285 1 1 1 -15.9993 -1.92196 0 0 0 0
 286 1 1 1 -12.5255 -1.06615 0 0 0 0
 287 1 1 1 -13.044 -0.456962 0 0 0 0
 288 1 1 1 -13.5626 0.152225 0 0 0 0
 289 1 1 1 4.04589 -15.6624 0 0 0 0
 290 1 1 1 4.65131 -16.1853 0 0 0 0
 291 1 1 1 5.25674 -16.7083 0 0 0 0
 292 1 1 1 5.86216 -17.2312 0 0 0 0
 293 1 1 1 6.46759 17.6949 0 0 -1 0
 294 1 1 1 6.13762 -13.2407 0 0 0 0
 295 1 1 1 6.74305 -13.7636 0 0 0 0
 296 1 1 1 7.34848 -14.2866 0 0 0 0
 297 1 1 1 7.9539 -14.8095 0 0 0 0
 298 1 1 1 8.55933 -15.3324 0 0 0 0
 299 1 1 1 4.56882 -15.057 0 0 0 0
 300 1 1 1 5.09176 -14.4515 0 0 0 0
 301 1 1 1 5.61469 -13.8461 0 0 0 0
 302 1 1 1 6.99052 -17.1487 0 0 0 0
 303 1 1 1 7.51346 -16.5433 0 0 0 0
 304 1 1 1 8.03639 -15.9379 0 0 0 0
 305 1 1 1 11.184 -7.32524 0 0 0 0
 306 1 1 1 11.2801 -6.53104 0 0 0 0
 307 1 1 1 11.3762 -5.73683 0 0 0 0
 308 1 1 1 11.4723 -4.94262 0 0 0 0
 309 1 1 1 11.5684 -4.14842 0 0 0 0
 310 1 1 1 8.00713 -6.94083 0 0 0 0
 311 1 1 1 8.10323 -6.14663 0 0 0 0
 312 1 1 1 8.19934 -5.35242 0 0 0 0
 313 1 1 1 8.29544 -4.55821 0 0 0 0
 314 1 1 1 8.39154 -3.76401 0 0 0 0
 315 1 1 1 10.3898 -7.22914 0 0 0 0
 316 1 1 1 9.59555 -7.13304 0 0 0 0
 317 1 1 1 8.80134 -7.03694 0 0 0 0
 318 1 1 1 10.7742 -4.05231 0 0 0 0
 319 1 1 1 9.97995 -3.95621 0 0 0 0
 320 1 1 1 9.18575 -3.86011 0 0 0 0
 321 1 1 1 -13.9035 3.57163 0 0 0 0
 322 1 1 1 -14.3114 4.25984 0 0 0 0
 323 1 1 1 -14.7193 4.94805 0 0 0 0
 324 1 1 1 -15.1272 5.63626 0 0 0 0
 325 1 1 1 -15.5351 6.32447 0 0 0 0
 326 1 1 1 -16.6564 1.94011 0 0 0 0
 327 1 1 1 -17.0643 2.62832 0 0 0 0
 328 1 1 1 -17.4721 3.31653 0 0 0 0
 329 1 1 1 17.5691 4.00474 0 -1 0 0
 330 1 1 1 17.1612 4.69295 0 -1 0 0
 331 1 1 1 -14.5917 3.16375 0 0 0 0
 332 1 1 1 -15.28 2.75587 0 0 0 0
 333 1 1 1 -15.9682 2.34799 0 0 0 0
 334 1 1 1 -16.2233 5.91659 0 0 0 0
 335 1 1 1 -16.9115 5.50871 0 0 0 0
 336 1 1 1 -17.5997 5.10083 0 0 0 0
 337 1 1 1 0.54948 -2.66911 0 0 0 0
 338 1 1 1 -0.145016 -2.27203 0 0 0 0
 339 1 1 1 -0.839511 -1.87495 0 0 0 0
 340 1 1 1 -1.53401 -1.47786 0 0 0 0
 341 1 1 1 -2.2285 -1.08078 0 0 0 0
 342 1 1 1 -1.03886 -5.4471 0 0 0 0
 343 1 1 1 -1.73335 -5.05001 0 0 0 0
 344 1 1 1 -2.42785 -4.65293 0 0 0 0
 345 1 1 1 -3.12234 -4.25584 0 0 0 0
 346 1 1 1 -3.81684 -3.85876 0 0 0 0
 347 1 1 1 0.152396 -3.36361 0 0 0 0
 348 1 1 1 -0.244688 -4.0581 0 0 0 0
 349 1 1 1 -0.641772 -4.7526 0 0 0 0
 350 1 1 1 -2.62559 -1.77527 0 0 0 0
 351 1 1 1 -3.02267 -2.46977 0 0 0 0
 352 1 1 1 -3.41975 -3.16426 0 0 0 0
 353 1 1 1 -4.19668 17.2012 0 0 0 0
 354 1 1 1 -3.62583 16.6407 0 0 0 0
 355 1 1 1 -3.05499 16.0802 0 0 0 0
 356 1 1 1 -2.48415 15.5197 0 0 0 0
 357 1 1 1 -1.91331 14.9592 0 0 0 0
 358 1 1 1 -1.95475 -15.9645 0 0 1 0
 359 1 1 1 -1.38391 -16.525 0 0 1 0
 360 1 1 1 -0.813069 -17.0855 0 0 1 0
 361 1 1 1 -0.242226 -17.646 0 0 1 0
 362 1 1 1 0.328617 17.2426 0 0 0 0
 363 1 1 1 -3.6362 -17.6771 0 0 1 0
 364 1 1 1 -3.07572 -17.1062 0 0 1 0
 365 1 1 1 -2.51523 -16.5354 0 0 1 0
 366 1 1 1 -1.35283 15.5301 0 0 0 0
 367 1 1 1 -0.792345 16.1009 0 0 0 0
 368 1 1 1 -0.231864 16.6718 0 0 0 0
 369 1 1 1 -17.1871 16.5178 0 0 0 0
 370 1 1 1 -17.4446 15.7604 0 0 0 0
 371 1 1 1 -17.7021 15.003 0 0 0 0
 372 1 1 1 17.4895 14.2456 0 -1 0 0
 373 1 1 1 17.232 13.4881 0 -1 0 0
 374 1 1 1 -14.1574 15.4878 0 0 0 0
 375 1 1 1 -14.4149 14.7304 0 0 0 0
 376 1 1 1 -14.6724 13.9729 0 0 0 0
 377 1 1 1 -14.9299 13.2155 0 0 0 0
 378 1 1 1 -15.1874 12.4581 0 0 0 0
 379 1 1 1 -16.4296 16.2603 0 0 0 0
 380 1 1 1 -15.6722 16.0028 0 0 0 0
 381 1 1 1 -14.9148 15.7453 0 0 0 0
 382 1 1 1 -17.4597 13.2306 0 0 0 0
 383 1 1 1 -16.7023 12.9731 0 0 0 0
 384 1 1 1 -15.9448 12.7156 0 0 0 0
 385 1 1 1 -17.6589 -2.90682 0 0 0 0
 386 1 1 1 17.1242 -3.3501 0 -1 0 0
 387 1 1 1 16.4583 -3.79338 0 -1 0 0
 388 1 1 1 15.7923 -4.23666 0 -1 0 0
 389 1 1 1 15.1263 -4.67995 0 -1 0 0
 390 1 1 1 -15.8858 -5.57066 0 0 0 0
 391 1 1 1 -16.5517 -6.01394 0 0 0 0
 392 1 1 1 -17.2177 -6.45722 0 0 0 0
 393 1 1 1 17.5654 -6.9005 0 -1 0 0
 394 1 1 1 16.8995 -7.34378 0 -1 0 0
 395 1 1 1 -17.2156 -3.57278 0 0 0 0
 396 1 1 1 -16.7723 -4.23874 0 0 0 0
 397 1 1 1 -16.3291 -4.9047 0 0 0 0
 398 1 1 1 15.5696 -5.3459 0 -1 0 0
 399 1 1 1 16.0129 -6.01186 0 -1 0 0
 400 1 1 1 16.4562 -6.67782 0 -1 0 0
 401 1 1 1 -6.8316 2.31691 0 0 0 0
 402 1 1 1 -6.20112 2.80936 0 0 0 0
 403 1 1 1 -5.57065 3.30181 0 0 0 0
 404 1 1 1 -4.94018 3.79425 0 0 0 0
 405 1 1 1 -4.30971 4.2867 0 0 0 0
 406 1 1 1 -8.80139 4.83879 0 0 0 0
 407 1 1 1 -8.17092 5.33124 0 0 0 0
 408 1 1 1 -7.54045 5.82369 0 0 0 0
 409 1 1 1 -6.90998 6.31614 0 0 0 0
 410 1 1 1 -6.27951 6.80859 0 0 0 0
 411 1 1 1 -7.32405 2.94738 0 0 0 0
 412 1 1 1 -7.81649 3.57785 0 0 0 0
 413 1 1 1 -8.30894 4.20832 0 0 0 0
 414 1 1 1 -4.80216 4.91717 0 0 0 0
 415 1 1 1 -5.29461 5.54765 0 0 0 0
 416 1 1 1 -5.78706 6.17812 0 0 0 0
 417 1 1 1 -1.4445 4.69727 0 0 0 0
 418 1 1 1 -1.03564 4.00964 0 0 0 0
 419 1 1 1 -0.626778 3.32201 0 0 0 0
 420 1 1 1 -0.21792 2.63438 0 0 0 0
 421 1 1 1 0.190939 1.94675 0 0 0 0
 422 1 1 1 1.30602 6.33271 0 0 0 0
 423 1 1 1 1.71488 5.64508 0 0 0 0
 424 1 1 1 2.12374 4.95745 0 0 0 0
 425 1 1 1 2.5326 4.26982 0 0 0 0
 426 1 1 1 2.94146 3.58219 0 0 0 0
 427 1 1 1 -0.756866 5.10613 0 0 0 0
 428 1 1 1 -0.0692361 5.51499 0 0 0 0
 429 1 1 1 0.618394 5.92385 0 0 0 0
 430 1 1 1 0.878569 2.35561 0 0 0 0
 431 1 1 1 1.5662 2.76447 0 0 0 0
 432 1 1 1 2.25383 3.17333 0 0 0 0
 433 1 1 1 -5.39703 -7.46828 0 0 0 0
 434 1 1 1 -5.98451 -8.01129 0 0 0 0
 435 1 1 1 -6.572 -8.5543 0 0 0 0
 436 1 1 1 -7.15948 -9.09732 0 0 0 0
 437 1 1 1 -7.74697 -9.64033 0 0 0 0
 438 1 1 1 -3.22498 -9.81822 0 0 0 0
 439 1 1 1 -3.81247 -10.3612 0 0 0 0
 440 1 1 1 -4.39996 -10.9042 0 0 0 0
 441 1 1 1 -4.98744 -11.4473 0 0 0 0
 442 1 1 1 -5.57493 -11.9903 0 0 0 0
 443 1 1 1 -4.85402 -8.05577 0 0 0 0
 444 1 1 1 -4.31101 -8.64325 0 0 0 0
 445 1 1 1 -3.768 -9.23074 0 0 0 0
 446 1 1 1 -7.20396 -10.2278 0 0 0 0
 447 1 1 1 -6.66095 -10.8153 0 0 0 0
 448 1 1 1 -6.11794 -11.4028 0 0 0 0
 449 1 1 1 -11.135 1.45358 0 0 0 0
 450 1 1 1 -11.3768 2.21617 0 0 0 0
 451 1 1 1 -11.6186 2.97875 0 0 0 0
 452 1 1 1 -11.8603 3.74134 0 0 0 0
 453 1 1 1 -12.1021 4.50392 0 0 0 0
 454 1 1 1 -14.1853 0.486409 0 0 0 0
 455 1 1 1 -14.4271 1.24899 0 0 0 0
 456 1 1 1 -14.6689 2.01158 0 0 0 0
 457 1 1 1 -14.9107 2.77416 0 0 0 0
 458 1 1 1 -15.1525 3.53675 0 0 0 0
 459 1 1 1 -11.8975 1.21179 0 0 0 0
 460 1 1 1 -12.6601 0.969995 0 0 0 0
 461 1 1 1 -13.4227 0.728202 0 0 0 0
 462 1 1 1 -12.8647 4.26213 0 0 0 0
 463 1 1 1 -13.6273 4.02034 0 0 0 0
 464 1 1 1 -14.3899 3.77854 0 0 0 0
 465 1 1 1 4.44279 -12.123 0 0 0 0
 466 1 1 1 3.64664 -12.2013 0 0 0 0
 467 1 1 1 2.85048 -12.2796 0 0 0 0
 468 1 1 1 2.05432 -12.3579 0 0 0 0
 469 1 1 1 1.25816 -12.4362 0 0 0 0
 470 1 1 1 4.756 -15.3076 0 0 0 0
 471 1 1 1 3.95984 -15.3859 0 0 0 0
 472 1 1 1 3.16368 -15.4642 0 0 0 0
 473 1 1 1 2.36752 -15.5425 0 0 0 0
 474 1 1 1 1.57136 -15.6208 0 0 0 0
 475 1 1 1 4.5211 -12.9192 0 0 0 0
 476 1 1 1 4.5994 -13.7153 0 0 0 0
 477 1 1 1 4.6777 -14.5115 0 0 0 0
 478 1 1 1 1.33646 -13.2324 0 0 0 0
 479 1 1 1 1.41476 -14.0285 0 0 0 0
 480 1 1 1 1.49306 -14.8247 0 0 0 0
 
Molecules

1 1
 2 1
 3 1
 4 1
 5 1
 6 1
 7 1
 8 1
 9 1
 10 1
 11 1
 12 1
 13 1
 14 1
 15 1
 16 1
 17 2
 18 2
 19 2
 20 2
 21 2
 22 2
 23 2
 24 2
 25 2
 26 2
 27 2
 28 2
 29 2
 30 2
 31 2
 32 2
 33 3
 34 3
 35 3
 36 3
 37 3
 38 3
 39 3
 40 3
 41 3
 42 3
 43 3
 44 3
 45 3
 46 3
 47 3
 48 3
 49 4
 50 4
 51 4
 52 4
 53 4
 54 4
 55 4
 56 4
 57 4
 58 4
 59 4
 60 4
 61 4
 62 4
 63 4
 64 4
 65 5
 66 5
 67 5
 68 5
 69 5
 70 5
 71 5
 72 5
 73 5
 74 5
 75 5
 76 5
 77 5
 78 5
 79 5
 80 5
 81 6
 82 6
 83 6
 84 6
 85 6
 86 6
 87 6
 88 6
 89 6
 90 6
 91 6
 92 6
 93 6
 94 6
 95 6
 96 6
 97 7
 98 7
 99 7
 100 7
 101 7
 102 7
 103 7
 104 7
 105 7
 106 7
 107 7
 108 7
 109 7
 110 7
 111 7
 112 7
 113 8
 114 8
 115 8
 116 8
 117 8
 118 8
 119 8
 120 8
 121 8
 122 8
 123 8
 124 8
 125 8
 126 8
 127 8
 128 8
 129 9
 130 9
 131 9
 132 9
 133 9
 134 9
 135 9
 136 9
 137 9
 138 9
 139 9
 140 9
 141 9
 142 9
 143 9
 144 9
 145 10
 146 10
 147 10
 148 10
 149 10
 150 10
 151 10
 152 10
 153 10
 154 10
 155 10
 156 10
 157 10
 158 10
 159 10
 160 10
 161 11
 162 11
 163 11
 164 11
 165 11
 166 11
 167 11
 168 11
 169 11
 170 11
 171 11
 172 11
 173 11
 174 11
 175 11
 176 11
 177 12
 178 12
 179 12
 180 12
 181 12
 182 12
 183 12
 184 12
 185 12
 186 12
 187 12
 188 12
 189 12
 190 12
 191 12
 192 12
 193 13
 194 13
 195 13
 196 13
 197 13
 198 13
 199 13
 200 13
 201 13
 202 13
 203 13
 204 13
 205 13
 206 13
 207 13
 208 13
 209 14
 210 14
 211 14
 212 14
 213 14
 214 14
 215 14
 216 14
 217 14
 218 14
 219 14
 220 14
 221 14
 222 14
 223 14
 224 14
 225 15
 226 15
 227 15
 228 15
 229 15
 230 15
 231 15
 232 15
 233 15
 234 15
 235 15
 236 15
 237 15
 238 15
 239 15
 240 15
 241 16
 242 16
 243 16
 244 16
 245 16
 246 16
 247 16
 248 16
 249 16
 250 16
 251 16
 252 16
 253 16
 254 16
 255 16
 256 16
 257 17
 258 17
 259 17
 260 17
 261 17
 262 17
 263 17
 264 17
 265 17
 266 17
 267 17
 268 17
 269 17
 270 17
 271 17
 272 17
 273 18
 274 18
 275 18
 276 18
 277 18
 278 18
 279 18
 280 18
 281 18
 282 18
 283 18
 284 18
 285 18
 286 18
 287 18
 288 18
 289 19
 290 19
 291 19
 292 19
 293 19
 294 19
 295 19
 296 19
 297 19
 298 19
 299 19
 300 19
 301 19
 302 19
 303 19
 304 19
 305 20
 306 20
 307 20
 308 20
 309 20
 310 20
 311 20
 312 20
 313 20
 314 20
 315 20
 316 20
 317 20
 318 20
 319 20
 320 20
 321 21
 322 21
 323 21
 324 21
 325 21
 326 21
 327 21
 328 21
 329 21
 330 21
 331 21
 332 21
 333 21
 334 21
 335 21
 336 21
 337 22
 338 22
 339 22
 340 22
 341 22
 342 22
 343 22
 344 22
 345 22
 346 22
 347 22
 348 22
 349 22
 350 22
 351 22
 352 22
 353 23
 354 23
 355 23
 356 23
 357 23
 358 23
 359 23
 360 23
 361 23
 362 23
 363 23
 364 23
 365 23
 366 23
 367 23
 368 23
 369 24
 370 24
 371 24
 372 24
 373 24
 374 24
 375 24
 376 24
 377 24
 378 24
 379 24
 380 24
 381 24
 382 24
 383 24
 384 24
 385 25
 386 25
 387 25
 388 25
 389 25
 390 25
 391 25
 392 25
 393 25
 394 25
 395 25
 396 25
 397 25
 398 25
 399 25
 400 25
 401 26
 402 26
 403 26
 404 26
 405 26
 406 26
 407 26
 408 26
 409 26
 410 26
 411 26
 412 26
 413 26
 414 26
 415 26
 416 26
 417 27
 418 27
 419 27
 420 27
 421 27
 422 27
 423 27
 424 27
 425 27
 426 27
 427 27
 428 27
 429 27
 430 27
 431 27
 432 27
 433 28
 434 28
 435 28
 436 28
 437 28
 438 28
 439 28
 440 28
 441 28
 442 28
 443 28
 444 28
 445 28
 446 28
 447 28
 448 28
 449 29
 450 29
 451 29
 452 29
 453 29
 454 29
 455 29
 456 29
 457 29
 458 29
 459 29
 460 29
 461 29
 462 29
 463 29
 464 29
 465 30
 466 30
 467 30
 468 30
 469 30
 470 30
 471 30
 472 30
 473 30
 474 30
 475 30
 476 30
 477 30
 478 30
 479 30
 480 30
 