LAMMPS data file for Nanoparticles
1500 atoms
1500 triangles
2 atom types
-8.746894682483111 8.746894682483111 xlo xhi
-8.746894682483111 8.746894682483111 ylo yhi
-8.746894682483111 8.746894682483111 zlo zhi

Atoms

1 1 1 1 1 8.41165 8.49444 -8.46803 -1 -1 0
 2 1 1 1 1 8.50049 -8.51432 -8.37396 -1 0 0
 3 1 1 1 1 -8.50049 8.51432 8.37396 0 -1 -1
 4 1 1 1 1 -8.41165 -8.49444 8.46803 0 0 -1
 5 1 1 1 1 -8.30908 8.67791 -8.55355 0 -1 0
 6 1 1 1 1 -8.60678 -8.42258 -8.41672 0 0 0
 7 1 1 1 1 8.60678 8.42258 8.41672 -1 -1 -1
 8 1 1 1 1 8.30908 -8.67791 8.55355 -1 0 -1
 9 1 1 1 1 -8.39791 8.19288 -8.64761 0 -1 0
 10 1 1 1 1 8.70935 8.10115 -8.60485 -1 -1 0
 11 1 1 1 1 -8.70935 -8.10115 8.60485 0 0 -1
 12 1 1 1 1 8.39791 -8.19288 8.64761 -1 0 -1
 13 2 1 1 1 -4.87529 -7.24249 -8.33732 0 0 0
 14 2 1 1 1 -5.36228 -7.16737 8.61822 0 0 -1
 15 2 1 1 1 -5.13399 8.56688 -8.33832 0 -1 0
 16 2 1 1 1 -5.62099 8.64199 8.61722 0 -1 -1
 17 2 1 1 1 -4.85715 -8.39425 8.36742 0 0 -1
 18 2 1 1 1 -5.35321 -7.74325 8.2237 0 0 -1
 19 2 1 1 1 -5.14306 -8.35103 -7.9438 0 0 0
 20 2 1 1 1 -5.63913 -7.70004 -8.08752 0 0 0
 21 2 1 1 1 -4.37015 -8.46936 -8.58812 0 0 0
 22 2 1 1 1 -4.37922 -7.89348 -8.1936 0 0 0
 23 2 1 1 1 -6.11705 -8.2008 8.4735 0 0 -1
 24 2 1 1 1 -6.12612 -7.62492 -8.62577 0 0 0
 25 3 1 1 1 -1.8859 -7.47356 -7.87604 0 0 0
 26 3 1 1 1 -1.68995 -7.87028 -8.14014 0 0 0
 27 3 1 1 1 -1.80881 -6.8245 8.69994 0 0 -1
 28 3 1 1 1 -1.61286 -7.22122 8.43584 0 0 -1
 29 3 1 1 1 -2.11556 -7.26179 -8.66776 0 0 0
 30 3 1 1 1 -1.80478 -7.7644 -8.536 0 0 0
 31 3 1 1 1 -1.69397 -6.93038 -8.39799 0 0 0
 32 3 1 1 1 -1.3832 -7.43299 -8.26622 0 0 0
 33 3 1 1 1 -2.31151 -6.86507 -8.40367 0 0 0
 34 3 1 1 1 -2.19668 -6.97095 -8.0078 0 0 0
 35 3 1 1 1 -1.30208 -7.72383 8.5676 0 0 -1
 36 3 1 1 1 -1.18725 -7.82972 -8.53032 0 0 0
 37 4 1 1 1 1.62439 -6.19699 -8.46894 0 0 0
 38 4 1 1 1 1.33039 -6.638 -8.07565 0 0 0
 39 4 1 1 1 2.16837 -6.65728 -8.57844 0 0 0
 40 4 1 1 1 1.87437 -7.09829 -8.18515 0 0 0
 41 4 1 1 1 1.26015 -7.42393 -8.28542 0 0 0
 42 4 1 1 1 1.14827 -7.25148 -7.98389 0 0 0
 43 4 1 1 1 2.35049 -6.0438 -8.6702 0 0 0
 44 4 1 1 1 2.23861 -5.87135 -8.36867 0 0 0
 45 4 1 1 1 1.55415 -6.98291 -8.67871 0 0 0
 46 4 1 1 1 1.73627 -6.36944 8.72332 0 0 -1
 47 4 1 1 1 1.76249 -6.92584 -7.88362 0 0 0
 48 4 1 1 1 1.94461 -6.31237 -7.97538 0 0 0
 49 5 1 1 1 6.00411 -5.68404 -8.21281 0 0 0
 50 5 1 1 1 5.91118 -5.72419 -7.79708 0 0 0
 51 5 1 1 1 4.5851 -6.17158 -8.5771 0 0 0
 52 5 1 1 1 4.49217 -6.21174 -8.16137 0 0 0
 53 5 1 1 1 4.81631 -5.65079 -7.99331 0 0 0
 54 5 1 1 1 5.31728 -5.70757 -7.68733 0 0 0
 55 5 1 1 1 5.179 -6.18821 -8.68685 0 0 0
 56 5 1 1 1 5.67997 -6.24498 -8.38088 0 0 0
 57 5 1 1 1 4.90924 -5.61064 -8.40904 0 0 0
 58 5 1 1 1 5.50314 -5.62727 -8.51879 0 0 0
 59 5 1 1 1 4.99314 -6.26851 -7.85539 0 0 0
 60 5 1 1 1 5.58704 -6.28514 -7.96514 0 0 0
 61 6 1 1 1 -8.04241 -4.82816 -8.51793 0 0 0
 62 6 1 1 1 -8.59092 -4.65903 8.72349 0 0 -1
 63 6 1 1 1 8.59092 -5.83725 -7.32399 -1 0 0
 64 6 1 1 1 8.04241 -5.66812 -7.57635 -1 0 0
 65 6 1 1 1 8.57881 -5.84704 -8.22997 -1 0 0
 66 6 1 1 1 8.46659 -5.16847 -8.62631 -1 0 0
 67 6 1 1 1 -8.46659 -5.3278 -7.46797 0 0 0
 68 6 1 1 1 -8.57881 -4.64924 -7.86432 0 0 0
 69 6 1 1 1 -8.36646 -6.01617 -7.9776 0 0 0
 70 6 1 1 1 -7.93018 -5.50672 -8.12158 0 0 0
 71 6 1 1 1 7.93018 -4.98955 -7.9727 -1 0 0
 72 6 1 1 1 8.36646 -4.48011 -8.11668 -1 0 0
 73 7 1 1 1 -5.62365 -4.86084 -7.84719 0 0 0
 74 7 1 1 1 -5.27182 -4.79857 -8.33037 0 0 0
 75 7 1 1 1 -5.22445 -4.2982 -7.48401 0 0 0
 76 7 1 1 1 -4.87263 -4.23593 -7.9672 0 0 0
 77 7 1 1 1 -5.41783 -4.02085 -8.259 0 0 0
 78 7 1 1 1 -5.16892 -4.37857 -8.53628 0 0 0
 79 7 1 1 1 -5.32736 -4.7182 -7.27811 0 0 0
 80 7 1 1 1 -5.07844 -5.07592 -7.55539 0 0 0
 81 7 1 1 1 -5.76966 -4.08312 -7.77581 0 0 0
 82 7 1 1 1 -5.87256 -4.50311 -7.56991 0 0 0
 83 7 1 1 1 -4.62371 -4.59366 -8.24448 0 0 0
 84 7 1 1 1 -4.72662 -5.01365 -8.03857 0 0 0
 85 8 1 1 1 -2.45075 -3.54241 -7.8164 0 0 0
 86 8 1 1 1 -1.96319 -3.27412 -8.22805 0 0 0
 87 8 1 1 1 -1.53557 -4.42314 -7.30644 0 0 0
 88 8 1 1 1 -1.048 -4.15486 -7.71809 0 0 0
 89 8 1 1 1 -1.33573 -3.50114 -7.29719 0 0 0
 90 8 1 1 1 -1.40568 -3.25349 -7.96844 0 0 0
 91 8 1 1 1 -2.09308 -4.44378 -7.56604 0 0 0
 92 8 1 1 1 -2.16302 -4.19613 -8.2373 0 0 0
 93 8 1 1 1 -1.8233 -3.76942 -6.88554 0 0 0
 94 8 1 1 1 -2.38081 -3.79005 -7.14515 0 0 0
 95 8 1 1 1 -1.11795 -3.90721 -8.38934 0 0 0
 96 8 1 1 1 -1.67546 -3.92785 -8.64894 0 0 0
 97 9 1 1 1 1.4316 -3.87216 -8.25905 0 0 0
 98 9 1 1 1 0.955305 -3.64305 -8.01261 0 0 0
 99 9 1 1 1 2.54345 -2.65471 -7.24197 0 0 0
 100 9 1 1 1 2.06715 -2.42561 -6.99553 0 0 0
 101 9 1 1 1 1.43005 -2.99835 -6.84344 0 0 0
 102 9 1 1 1 0.954529 -3.20615 -7.3048 0 0 0
 103 9 1 1 1 2.54423 -3.09162 -7.94978 0 0 0
 104 9 1 1 1 2.06871 -3.29942 -8.41115 0 0 0
 105 9 1 1 1 1.90635 -3.22745 -7.08987 0 0 0
 106 9 1 1 1 1.90713 -3.66436 -7.79768 0 0 0
 107 9 1 1 1 1.59163 -2.63341 -7.4569 0 0 0
 108 9 1 1 1 1.59241 -3.07031 -8.16471 0 0 0
 109 10 1 1 1 5.89897 -2.8426 -6.80369 0 0 0
 110 10 1 1 1 6.18176 -2.40971 -7.0719 0 0 0
 111 10 1 1 1 4.31452 -2.48855 -7.90278 0 0 0
 112 10 1 1 1 4.5973 -2.05566 -8.171 0 0 0
 113 10 1 1 1 5.44626 -2.23518 -8.28692 0 0 0
 114 10 1 1 1 5.9554 -2.106 -7.81352 0 0 0
 115 10 1 1 1 4.54087 -2.79226 -7.16116 0 0 0
 116 10 1 1 1 5.05001 -2.66308 -6.68777 0 0 0
 117 10 1 1 1 5.16347 -2.66807 -8.0187 0 0 0
 118 10 1 1 1 5.38983 -2.97178 -7.27709 0 0 0
 119 10 1 1 1 5.10644 -1.92648 -7.6976 0 0 0
 120 10 1 1 1 5.3328 -2.23019 -6.95598 0 0 0
 121 11 1 1 1 8.39047 -0.939971 -7.52815 -1 0 0
 122 11 1 1 1 8.0475 -1.29208 -7.00596 -1 0 0
 123 11 1 1 1 -8.0475 -2.20668 -7.68883 0 0 0
 124 11 1 1 1 -8.39047 -2.55879 -7.16663 0 0 0
 125 11 1 1 1 8.28351 -2.47232 -7.54045 -1 0 0
 126 11 1 1 1 7.99402 -2.05825 -7.01211 -1 0 0
 127 11 1 1 1 -7.99402 -1.44051 -7.68268 0 0 0
 128 11 1 1 1 -8.28351 -1.02644 -7.15433 0 0 0
 129 11 1 1 1 8.62648 -2.12021 -8.06265 -1 0 0
 130 11 1 1 1 8.67996 -1.35404 -8.0565 -1 0 0
 131 11 1 1 1 -8.67996 -2.14472 -6.63828 0 0 0
 132 11 1 1 1 -8.62648 -1.37855 -6.63213 0 0 0
 133 12 1 1 1 -5.23136 -0.798156 -7.64521 0 0 0
 134 12 1 1 1 -4.82851 -1.25184 -7.40284 0 0 0
 135 12 1 1 1 -5.66777 -0.847417 -7.01204 0 0 0
 136 12 1 1 1 -5.26492 -1.3011 -6.76968 0 0 0
 137 12 1 1 1 -4.58202 -1.27292 -6.60939 0 0 0
 138 12 1 1 1 -4.50384 -1.48922 -6.88493 0 0 0
 139 12 1 1 1 -5.99244 -0.610036 -7.52995 0 0 0
 140 12 1 1 1 -5.91425 -0.826337 -7.80549 0 0 0
 141 12 1 1 1 -4.98487 -0.819236 -6.85176 0 0 0
 142 12 1 1 1 -5.30954 -0.581855 -7.36967 0 0 0
 143 12 1 1 1 -5.18674 -1.5174 -7.04522 0 0 0
 144 12 1 1 1 -5.5114 -1.28002 -7.56312 0 0 0
 145 13 1 1 1 -1.78164 -0.498789 -7.5926 0 0 0
 146 13 1 1 1 -1.62761 -0.853909 -7.24091 0 0 0
 147 13 1 1 1 -1.87115 0.154157 -6.89407 0 0 0
 148 13 1 1 1 -1.71712 -0.200963 -6.54239 0 0 0
 149 13 1 1 1 -1.18106 -0.475776 -6.65693 0 0 0
 150 13 1 1 1 -1.32732 -0.842402 -6.77307 0 0 0
 151 13 1 1 1 -2.17144 0.142651 -7.36191 0 0 0
 152 13 1 1 1 -2.31769 -0.223976 -7.47806 0 0 0
 153 13 1 1 1 -1.33509 -0.120656 -7.00861 0 0 0
 154 13 1 1 1 -1.63538 -0.132162 -7.47645 0 0 0
 155 13 1 1 1 -1.86338 -0.56759 -6.65853 0 0 0
 156 13 1 1 1 -2.16366 -0.579096 -7.12637 0 0 0
 157 14 1 1 1 1.30399 -0.333637 -7.29914 0 0 0
 158 14 1 1 1 1.37316 -0.426637 -6.68437 0 0 0
 159 14 1 1 1 2.1256 1.12639 -7.17071 0 0 0
 160 14 1 1 1 2.19477 1.03339 -6.55594 0 0 0
 161 14 1 1 1 2.43075 0.281544 -6.84594 0 0 0
 162 14 1 1 1 1.93654 -0.119047 -6.45777 0 0 0
 163 14 1 1 1 1.56221 0.818798 -7.39731 0 0 0
 164 14 1 1 1 1.068 0.418208 -7.00914 0 0 0
 165 14 1 1 1 2.36159 0.374544 -7.46071 0 0 0
 166 14 1 1 1 1.7982 0.0669535 -7.68731 0 0 0
 167 14 1 1 1 1.70055 0.632798 -6.16778 0 0 0
 168 14 1 1 1 1.13717 0.325208 -6.39437 0 0 0
 169 15 1 1 1 5.45643 0.596092 -5.91811 0 0 0
 170 15 1 1 1 4.86962 0.966204 -5.86301 0 0 0
 171 15 1 1 1 5.62665 1.13305 -7.71217 0 0 0
 172 15 1 1 1 5.03984 1.50316 -7.65707 0 0 0
 173 15 1 1 1 4.71903 1.94751 -6.89754 0 0 0
 174 15 1 1 1 4.50092 1.64191 -6.35273 0 0 0
 175 15 1 1 1 5.99535 0.45734 -7.22245 0 0 0
 176 15 1 1 1 5.77724 0.151741 -6.67764 0 0 0
 177 15 1 1 1 5.30585 1.5774 -6.95264 0 0 0
 178 15 1 1 1 5.67455 0.901691 -6.46292 0 0 0
 179 15 1 1 1 4.82173 1.19756 -7.11226 0 0 0
 180 15 1 1 1 5.19043 0.521853 -6.62254 0 0 0
 181 16 1 1 1 8.61927 1.25141 -6.9072 -1 0 0
 182 16 1 1 1 -8.2551 1.45269 -6.60581 0 0 0
 183 16 1 1 1 8.2551 2.04607 -6.68947 -1 0 0
 184 16 1 1 1 -8.61927 2.24735 -6.38808 0 0 0
 185 16 1 1 1 -7.91117 2.31759 -6.70248 0 0 0
 186 16 1 1 1 -7.77343 1.98578 -6.50346 0 0 0
 187 16 1 1 1 7.77343 1.51298 -6.79182 -1 0 0
 188 16 1 1 1 7.91117 1.18117 -6.5928 -1 0 0
 189 16 1 1 1 -8.53059 2.11631 -7.00387 0 0 0
 190 16 1 1 1 8.48153 1.58322 -7.10623 -1 0 0
 191 16 1 1 1 -8.48153 1.91554 -6.18905 0 0 0
 192 16 1 1 1 8.53059 1.38244 -6.29141 -1 0 0
 193 17 1 1 1 -5.05622 2.11761 -6.14263 0 0 0
 194 17 1 1 1 -4.85514 2.59078 -6.1829 0 0 0
 195 17 1 1 1 -5.64114 2.30748 -6.83248 0 0 0
 196 17 1 1 1 -5.44005 2.78065 -6.87275 0 0 0
 197 17 1 1 1 -4.84936 2.73713 -6.97289 0 0 0
 198 17 1 1 1 -4.75171 2.90054 -6.59803 0 0 0
 199 17 1 1 1 -5.74457 1.99772 -6.41735 0 0 0
 200 17 1 1 1 -5.64691 2.16114 -6.04249 0 0 0
 201 17 1 1 1 -5.05044 2.26396 -6.93262 0 0 0
 202 17 1 1 1 -5.15387 1.9542 -6.51749 0 0 0
 203 17 1 1 1 -5.3424 2.94406 -6.49789 0 0 0
 204 17 1 1 1 -5.44583 2.6343 -6.08276 0 0 0
 205 18 1 1 1 -1.6033 2.73516 -7.0709 0 0 0
 206 18 1 1 1 -1.82188 2.32869 -6.46246 0 0 0
 207 18 1 1 1 -1.67688 3.96908 -6.27302 0 0 0
 208 18 1 1 1 -1.89546 3.56261 -5.66457 0 0 0
 209 18 1 1 1 -1.11845 3.25065 -6.01478 0 0 0
 210 18 1 1 1 -1.57946 2.58643 -5.9344 0 0 0
 211 18 1 1 1 -1.9193 3.71133 -6.80108 0 0 0
 212 18 1 1 1 -2.38031 3.04712 -6.7207 0 0 0
 213 18 1 1 1 -0.899867 3.65712 -6.62322 0 0 0
 214 18 1 1 1 -1.14229 3.39937 -7.15128 0 0 0
 215 18 1 1 1 -2.35647 2.89839 -5.5842 0 0 0
 216 18 1 1 1 -2.59889 2.64065 -6.11226 0 0 0
 217 19 1 1 1 1.38037 3.64869 -6.19557 0 0 0
 218 19 1 1 1 1.71746 4.00402 -6.61769 0 0 0
 219 19 1 1 1 1.7813 3.69325 -5.83789 0 0 0
 220 19 1 1 1 2.11839 4.04858 -6.26001 0 0 0
 221 19 1 1 1 1.55663 4.00378 -5.89561 0 0 0
 222 19 1 1 1 1.80559 4.18156 -6.46771 0 0 0
 223 19 1 1 1 1.69317 3.51571 -5.98786 0 0 0
 224 19 1 1 1 1.94213 3.69349 -6.55996 0 0 0
 225 19 1 1 1 1.21954 3.64845 -5.47349 0 0 0
 226 19 1 1 1 1.13141 3.47091 -5.62347 0 0 0
 227 19 1 1 1 2.36735 4.22636 -6.83211 0 0 0
 228 19 1 1 1 2.27922 4.04882 -6.98209 0 0 0
 229 20 1 1 1 5.88337 4.27518 -6.70329 0 0 0
 230 20 1 1 1 6.14132 4.31658 -6.01422 0 0 0
 231 20 1 1 1 4.35495 4.78019 -6.16146 0 0 0
 232 20 1 1 1 4.61291 4.82159 -5.47239 0 0 0
 233 20 1 1 1 5.14032 5.21674 -6.1276 0 0 0
 234 20 1 1 1 5.7698 4.78736 -5.72637 0 0 0
 235 20 1 1 1 4.72648 4.30941 -6.44931 0 0 0
 236 20 1 1 1 5.35596 3.88003 -6.04808 0 0 0
 237 20 1 1 1 4.88236 5.17534 -6.81667 0 0 0
 238 20 1 1 1 5.25388 4.70456 -7.10452 0 0 0
 239 20 1 1 1 5.24239 4.39221 -5.07116 0 0 0
 240 20 1 1 1 5.61392 3.92144 -5.35901 0 0 0
 241 21 1 1 1 8.72094 5.55482 -5.61347 -1 0 0
 242 21 1 1 1 8.6416 4.84508 -5.76615 -1 0 0
 243 21 1 1 1 -8.6416 5.65119 -6.12962 0 0 0
 244 21 1 1 1 -8.72094 4.94145 -6.28231 0 0 0
 245 21 1 1 1 8.08767 4.63385 -6.32479 -1 0 0
 246 21 1 1 1 8.32497 4.38459 -6.12182 -1 0 0
 247 21 1 1 1 -8.32497 6.11168 -5.77396 0 0 0
 248 21 1 1 1 -8.08767 5.86243 -5.57099 0 0 0
 249 21 1 1 1 8.16702 5.34358 -6.1721 -1 0 0
 250 21 1 1 1 8.48365 5.80407 -5.81644 -1 0 0
 251 21 1 1 1 -8.48365 4.6922 -6.07934 0 0 0
 252 21 1 1 1 -8.16702 5.15269 -5.72367 0 0 0
 253 22 1 1 1 -4.70469 5.63052 -5.93351 0 0 0
 254 22 1 1 1 -4.8306 5.86118 -5.32839 0 0 0
 255 22 1 1 1 -5.66567 6.0346 -6.28749 0 0 0
 256 22 1 1 1 -5.79159 6.26526 -5.68237 0 0 0
 257 22 1 1 1 -5.15072 6.60198 -5.89643 0 0 0
 258 22 1 1 1 -5.05362 6.34691 -5.30984 0 0 0
 259 22 1 1 1 -5.44266 5.54887 -6.30603 0 0 0
 260 22 1 1 1 -5.34555 5.2938 -5.71945 0 0 0
 261 22 1 1 1 -5.02481 6.37132 -6.50155 0 0 0
 262 22 1 1 1 -4.80179 5.88559 -6.52009 0 0 0
 263 22 1 1 1 -5.69448 6.01019 -5.09579 0 0 0
 264 22 1 1 1 -5.47146 5.52446 -5.11433 0 0 0
 265 23 1 1 1 -1.62671 6.65485 -6.06771 0 0 0
 266 23 1 1 1 -1.37542 6.7377 -5.50391 0 0 0
 267 23 1 1 1 -2.12334 6.55758 -5.83206 0 0 0
 268 23 1 1 1 -1.87205 6.64043 -5.26827 0 0 0
 269 23 1 1 1 -1.56612 7.06916 -4.88735 0 0 0
 270 23 1 1 1 -1.34512 6.94486 -4.91373 0 0 0
 271 23 1 1 1 -2.15363 6.35042 -6.42224 0 0 0
 272 23 1 1 1 -1.93264 6.22612 -6.44863 0 0 0
 273 23 1 1 1 -1.81741 6.98631 -5.45115 0 0 0
 274 23 1 1 1 -1.8477 6.77915 -6.04133 0 0 0
 275 23 1 1 1 -1.65106 6.51613 -5.29465 0 0 0
 276 23 1 1 1 -1.68135 6.30897 -5.88483 0 0 0
 277 24 1 1 1 2.13022 7.74673 -5.25112 0 0 0
 278 24 1 1 1 1.59277 7.90828 -5.73314 0 0 0
 279 24 1 1 1 1.90599 6.7865 -5.32293 0 0 0
 280 24 1 1 1 1.36854 6.94805 -5.80495 0 0 0
 281 24 1 1 1 1.87963 7.2107 -6.37565 0 0 0
 282 24 1 1 1 1.46748 7.64026 -6.29541 0 0 0
 283 24 1 1 1 2.03128 7.05452 -4.76067 0 0 0
 284 24 1 1 1 1.61913 7.48408 -4.68042 0 0 0
 285 24 1 1 1 2.41707 7.04915 -5.89363 0 0 0
 286 24 1 1 1 2.54237 7.31717 -5.33137 0 0 0
 287 24 1 1 1 0.956392 7.37761 -5.72471 0 0 0
 288 24 1 1 1 1.08169 7.64563 -5.16244 0 0 0
 289 25 1 1 1 5.40494 8.54569 -5.16423 0 0 0
 290 25 1 1 1 5.67875 8.39219 -5.52504 0 0 0
 291 25 1 1 1 4.81752 7.7021 -5.25113 0 0 0
 292 25 1 1 1 5.09133 7.5486 -5.61194 0 0 0
 293 25 1 1 1 5.51696 7.63168 -5.21331 0 0 0
 294 25 1 1 1 5.73476 7.93519 -5.54958 0 0 0
 295 25 1 1 1 4.76151 8.1591 -5.22659 0 0 0
 296 25 1 1 1 4.97931 8.4626 -5.56286 0 0 0
 297 25 1 1 1 5.24315 7.78518 -4.8525 0 0 0
 298 25 1 1 1 5.18714 8.24218 -4.82796 0 0 0
 299 25 1 1 1 5.30913 7.85211 -5.94822 0 0 0
 300 25 1 1 1 5.25312 8.30911 -5.92368 0 0 0
 301 26 1 1 1 -8.41737 -8.2398 -5.38867 0 0 0
 302 26 1 1 1 -8.59711 -8.53485 -4.68415 0 0 0
 303 26 1 1 1 8.59711 8.53485 -5.81213 -1 -1 0
 304 26 1 1 1 8.41737 8.2398 -5.10761 -1 -1 0
 305 26 1 1 1 7.89843 -8.70674 -4.72051 -1 0 0
 306 26 1 1 1 8.30768 8.72547 -4.35007 -1 -1 0
 307 26 1 1 1 -8.30768 -8.72547 -6.14621 0 0 0
 308 26 1 1 1 -7.89843 8.70674 -5.77576 0 -1 0
 309 26 1 1 1 8.07817 -8.41169 -5.42503 -1 0 0
 310 26 1 1 1 8.66717 -8.17821 -5.75911 -1 0 0
 311 26 1 1 1 -8.66717 8.17821 -4.73716 0 -1 0
 312 26 1 1 1 -8.07817 8.41169 -5.07124 0 -1 0
 313 27 1 1 1 -5.86587 -7.47113 -5.08452 0 0 0
 314 27 1 1 1 -5.8977 -7.89991 -4.58825 0 0 0
 315 27 1 1 1 -4.59858 -8.19437 -5.62813 0 0 0
 316 27 1 1 1 -4.6304 -8.62315 -5.13186 0 0 0
 317 27 1 1 1 -5.39169 8.55101 -4.99463 0 -1 0
 318 27 1 1 1 -5.66061 -8.63574 -4.5433 0 0 0
 319 27 1 1 1 -4.83567 -7.45855 -5.67307 0 0 0
 320 27 1 1 1 -5.10458 -7.15151 -5.22174 0 0 0
 321 27 1 1 1 -5.35987 -8.514 -5.4909 0 0 0
 322 27 1 1 1 -5.59695 -7.77817 -5.53584 0 0 0
 323 27 1 1 1 -4.89932 -8.31611 -4.68053 0 0 0
 324 27 1 1 1 -5.13641 -7.58029 -4.72547 0 0 0
 325 28 1 1 1 -1.85078 -7.39541 -4.39472 0 0 0
 326 28 1 1 1 -1.33984 -7.00767 -4.72663 0 0 0
 327 28 1 1 1 -2.15892 -7.68711 -5.20984 0 0 0
 328 28 1 1 1 -1.64798 -7.29937 -5.54175 0 0 0
 329 28 1 1 1 -0.911039 -7.52437 -5.39449 0 0 0
 330 28 1 1 1 -0.869971 -7.07215 -5.22652 0 0 0
 331 28 1 1 1 -2.62879 -7.62264 -4.70995 0 0 0
 332 28 1 1 1 -2.58772 -7.17042 -4.54198 0 0 0
 333 28 1 1 1 -1.42197 -7.91211 -5.06258 0 0 0
 334 28 1 1 1 -1.89184 -7.84763 -4.5627 0 0 0
 335 28 1 1 1 -1.60691 -6.84715 -5.37378 0 0 0
 336 28 1 1 1 -2.07678 -6.78268 -4.87389 0 0 0
 337 29 1 1 1 1.34306 -6.39937 -4.23345 0 0 0
 338 29 1 1 1 1.29114 -6.86728 -4.26054 0 0 0
 339 29 1 1 1 2.20762 -6.428 -5.39603 0 0 0
 340 29 1 1 1 2.1557 -6.89591 -5.42312 0 0 0
 341 29 1 1 1 1.49135 -6.9449 -5.31389 0 0 0
 342 29 1 1 1 1.36528 -7.14005 -4.80076 0 0 0
 343 29 1 1 1 2.13347 -6.15523 -4.85581 0 0 0
 344 29 1 1 1 2.0074 -6.35038 -4.34268 0 0 0
 345 29 1 1 1 1.54327 -6.47699 -5.2868 0 0 0
 346 29 1 1 1 1.46913 -6.20423 -4.74658 0 0 0
 347 29 1 1 1 2.02963 -7.09105 -4.91 0 0 0
 348 29 1 1 1 1.95548 -6.81829 -4.36978 0 0 0
 349 30 1 1 1 5.59336 -5.66561 -5.0733 0 0 0
 350 30 1 1 1 5.55749 -5.50693 -4.44975 0 0 0
 351 30 1 1 1 4.93879 -6.38884 -4.92692 0 0 0
 352 30 1 1 1 4.90291 -6.23017 -4.30337 0 0 0
 353 30 1 1 1 4.81005 -5.62097 -3.92435 0 0 0
 354 30 1 1 1 5.16583 -5.48462 -3.87527 0 0 0
 355 30 1 1 1 5.33044 -6.41116 -5.5014 0 0 0
 356 30 1 1 1 5.68623 -6.2748 -5.45232 0 0 0
 357 30 1 1 1 4.84592 -5.77965 -4.5479 0 0 0
 358 30 1 1 1 5.23758 -5.80197 -5.12238 0 0 0
 359 30 1 1 1 5.25869 -6.09381 -4.25429 0 0 0
 360 30 1 1 1 5.65035 -6.11613 -4.82877 0 0 0
 361 31 1 1 1 -8.27631 -5.19885 -4.31428 0 0 0
 362 31 1 1 1 -8.38631 -5.19017 -4.92958 0 0 0
 363 31 1 1 1 8.38631 -5.3061 -4.1672 -1 0 0
 364 31 1 1 1 8.27631 -5.29742 -4.78249 -1 0 0
 365 31 1 1 1 8.67144 -5.81648 -4.56882 -1 0 0
 366 31 1 1 1 -8.65933 -5.49899 -5.05684 0 0 0
 367 31 1 1 1 8.65933 -4.99729 -4.03993 -1 0 0
 368 31 1 1 1 -8.67144 -4.6798 -4.52795 0 0 0
 369 31 1 1 1 -8.71234 -5.82515 -3.95353 0 0 0
 370 31 1 1 1 -8.43932 -5.51634 -3.82626 0 0 0
 371 31 1 1 1 8.43932 -4.97993 -5.27051 -1 0 0
 372 31 1 1 1 8.71234 -4.67112 -5.14324 -1 0 0
 373 32 1 1 1 -4.85553 -4.31546 -3.82008 0 0 0
 374 32 1 1 1 -4.63732 -4.75179 -4.03417 0 0 0
 375 32 1 1 1 -5.85896 -4.34498 -4.7827 0 0 0
 376 32 1 1 1 -5.64074 -4.78131 -4.99679 0 0 0
 377 32 1 1 1 -5.5977 -5.08864 -4.3624 0 0 0
 378 32 1 1 1 -5.0084 -5.13838 -4.30533 0 0 0
 379 32 1 1 1 -5.48787 -3.95839 -4.51154 0 0 0
 380 32 1 1 1 -4.89857 -4.00813 -4.45447 0 0 0
 381 32 1 1 1 -5.81592 -4.65232 -4.14831 0 0 0
 382 32 1 1 1 -5.44483 -4.26573 -3.87715 0 0 0
 383 32 1 1 1 -5.05144 -4.83104 -4.93972 0 0 0
 384 32 1 1 1 -4.68035 -4.44445 -4.66856 0 0 0
 385 33 1 1 1 -1.46576 -3.2783 -4.86685 0 0 0
 386 33 1 1 1 -2.07668 -3.35058 -4.90769 0 0 0
 387 33 1 1 1 -1.42208 -4.34669 -3.62928 0 0 0
 388 33 1 1 1 -2.033 -4.41897 -3.67012 0 0 0
 389 33 1 1 1 -1.66732 -4.42349 -4.40741 0 0 0
 390 33 1 1 1 -2.17746 -3.92318 -4.67797 0 0 0
 391 33 1 1 1 -1.32129 -3.77409 -3.859 0 0 0
 392 33 1 1 1 -1.83144 -3.27378 -4.12956 0 0 0
 393 33 1 1 1 -1.0564 -4.35121 -4.36657 0 0 0
 394 33 1 1 1 -0.955614 -3.77861 -4.59629 0 0 0
 395 33 1 1 1 -2.54314 -3.91866 -3.94068 0 0 0
 396 33 1 1 1 -2.44236 -3.34606 -4.1704 0 0 0
 397 34 1 1 1 1.9462 -3.52129 -3.52348 0 0 0
 398 34 1 1 1 2.13791 -2.99312 -3.52165 0 0 0
 399 34 1 1 1 1.36084 -3.30464 -4.73542 0 0 0
 400 34 1 1 1 1.55256 -2.77647 -4.73359 0 0 0
 401 34 1 1 1 2.24119 -2.67863 -4.53758 0 0 0
 402 34 1 1 1 2.28541 -2.57179 -4.0287 0 0 0
 403 34 1 1 1 1.21335 -3.72597 -4.22837 0 0 0
 404 34 1 1 1 1.25757 -3.61913 -3.71949 0 0 0
 405 34 1 1 1 2.04948 -3.2068 -4.5394 0 0 0
 406 34 1 1 1 1.90198 -3.62814 -4.03235 0 0 0
 407 34 1 1 1 1.59678 -2.66963 -4.22472 0 0 0
 408 34 1 1 1 1.44928 -3.09096 -3.71767 0 0 0
 409 35 1 1 1 4.52451 -2.31848 -4.56711 0 0 0
 410 35 1 1 1 4.80383 -2.89444 -4.68118 0 0 0
 411 35 1 1 1 5.69244 -2.00383 -3.29599 0 0 0
 412 35 1 1 1 5.97176 -2.57978 -3.41006 0 0 0
 413 35 1 1 1 5.66032 -2.07839 -4.05539 0 0 0
 414 35 1 1 1 5.37173 -2.77439 -4.42532 0 0 0
 415 35 1 1 1 5.12454 -2.12387 -3.55185 0 0 0
 416 35 1 1 1 4.83596 -2.81988 -3.92178 0 0 0
 417 35 1 1 1 5.381 -1.50243 -3.94132 0 0 0
 418 35 1 1 1 4.8131 -1.62248 -4.19718 0 0 0
 419 35 1 1 1 5.68318 -3.27579 -3.77999 0 0 0
 420 35 1 1 1 5.11527 -3.39583 -4.03585 0 0 0
 421 36 1 1 1 8.62889 -2.22512 -3.78657 -1 0 0
 422 36 1 1 1 -8.31956 -1.76065 -4.09636 0 0 0
 423 36 1 1 1 8.31956 -1.73811 -3.60091 -1 0 0
 424 36 1 1 1 -8.62889 -1.27364 -3.9107 0 0 0
 425 36 1 1 1 8.51323 -1.48372 -4.60504 -1 0 0
 426 36 1 1 1 -8.37739 -1.38995 -4.5056 0 0 0
 427 36 1 1 1 8.37739 -2.10881 -3.19167 -1 0 0
 428 36 1 1 1 -8.51323 -2.01503 -3.09222 0 0 0
 429 36 1 1 1 7.9679 -1.9482 -4.29525 -1 0 0
 430 36 1 1 1 8.02572 -2.3189 -3.88601 -1 0 0
 431 36 1 1 1 -8.02572 -1.17986 -3.81126 0 0 0
 432 36 1 1 1 -7.9679 -1.55056 -3.40202 0 0 0
 433 37 1 1 1 -5.52928 -1.79529 -3.80426 0 0 0
 434 37 1 1 1 -4.96759 -1.6501 -4.16136 0 0 0
 435 37 1 1 1 -5.52868 -0.449154 -3.25601 0 0 0
 436 37 1 1 1 -4.96699 -0.303967 -3.61311 0 0 0
 437 37 1 1 1 -5.17002 -0.507291 -4.39814 0 0 0
 438 37 1 1 1 -4.78796 -1.0061 -4.4583 0 0 0
 439 37 1 1 1 -5.70831 -1.09315 -2.95907 0 0 0
 440 37 1 1 1 -5.32625 -1.59196 -3.01923 0 0 0
 441 37 1 1 1 -5.73171 -0.652478 -4.04104 0 0 0
 442 37 1 1 1 -5.91134 -1.29648 -3.7441 0 0 0
 443 37 1 1 1 -4.58493 -0.802779 -3.67327 0 0 0
 444 37 1 1 1 -4.76456 -1.44678 -3.37633 0 0 0
 445 38 1 1 1 -2.0725 -0.405304 -4.51093 0 0 0
 446 38 1 1 1 -2.38823 -0.171828 -4.31397 0 0 0
 447 38 1 1 1 -1.11053 -0.527923 -2.8235 0 0 0
 448 38 1 1 1 -1.42626 -0.294448 -2.62654 0 0 0
 449 38 1 1 1 -1.84492 -0.681092 -3.16421 0 0 0
 450 38 1 1 1 -2.27445 -0.309722 -3.64061 0 0 0
 451 38 1 1 1 -1.22431 -0.390029 -3.49686 0 0 0
 452 38 1 1 1 -1.65383 -0.0186597 -3.97326 0 0 0
 453 38 1 1 1 -1.52919 -0.914567 -3.36117 0 0 0
 454 38 1 1 1 -1.64298 -0.776673 -4.03453 0 0 0
 455 38 1 1 1 -1.85578 0.0769215 -3.10294 0 0 0
 456 38 1 1 1 -1.96957 0.214816 -3.7763 0 0 0
 457 39 1 1 1 1.84533 0.779796 -3.93884 0 0 0
 458 39 1 1 1 1.12635 0.436296 -3.67079 0 0 0
 459 39 1 1 1 2.37241 0.263455 -3.18678 0 0 0
 460 39 1 1 1 1.65343 -0.0800448 -2.91873 0 0 0
 461 39 1 1 1 1.42897 -0.615393 -3.62095 0 0 0
 462 39 1 1 1 0.918173 -0.261299 -3.51184 0 0 0
 463 39 1 1 1 2.58059 0.96105 -3.34572 0 0 0
 464 39 1 1 1 2.06979 1.31514 -3.23661 0 0 0
 465 39 1 1 1 2.14794 -0.271893 -3.88901 0 0 0
 466 39 1 1 1 2.35612 0.425702 -4.04795 0 0 0
 467 39 1 1 1 1.14264 0.27405 -2.80962 0 0 0
 468 39 1 1 1 1.35082 0.971644 -2.96856 0 0 0
 469 40 1 1 1 5.19448 0.351044 -2.80408 0 0 0
 470 40 1 1 1 5.65114 0.65055 -2.65306 0 0 0
 471 40 1 1 1 4.84513 1.4487 -3.9246 0 0 0
 472 40 1 1 1 5.3018 1.74821 -3.77358 0 0 0
 473 40 1 1 1 5.96699 1.41731 -3.53689 0 0 0
 474 40 1 1 1 6.0374 1.18368 -3.01947 0 0 0
 475 40 1 1 1 4.45887 0.915573 -3.5582 0 0 0
 476 40 1 1 1 4.52929 0.681946 -3.04078 0 0 0
 477 40 1 1 1 5.51032 1.1178 -3.68791 0 0 0
 478 40 1 1 1 5.12406 0.584671 -3.3215 0 0 0
 479 40 1 1 1 5.37221 1.51458 -3.25616 0 0 0
 480 40 1 1 1 4.98596 0.981452 -2.88976 0 0 0
 481 41 1 1 1 -8.55813 0.791302 -2.81676 0 0 0
 482 41 1 1 1 -8.71098 0.75031 -3.40269 0 0 0
 483 41 1 1 1 8.71098 2.74845 -2.89508 -1 0 0
 484 41 1 1 1 8.55813 2.70746 -3.481 -1 0 0
 485 41 1 1 1 8.05525 1.98191 -3.6257 -1 0 0
 486 41 1 1 1 8.34261 1.34562 -3.80716 -1 0 0
 487 41 1 1 1 -8.34261 2.15314 -2.49061 0 0 0
 488 41 1 1 1 -8.05525 1.51684 -2.67207 0 0 0
 489 41 1 1 1 8.2081 2.0229 -3.03977 -1 0 0
 490 41 1 1 1 8.6483 1.4276 -2.63531 -1 0 0
 491 41 1 1 1 -8.6483 2.07116 -3.66246 0 0 0
 492 41 1 1 1 -8.2081 1.47585 -3.25799 0 0 0
 493 42 1 1 1 -5.20565 1.95598 -2.54178 0 0 0
 494 42 1 1 1 -5.79962 2.06004 -2.92107 0 0 0
 495 42 1 1 1 -4.69666 2.83822 -3.09679 0 0 0
 496 42 1 1 1 -5.29062 2.94228 -3.47609 0 0 0
 497 42 1 1 1 -5.4487 3.02269 -2.68518 0 0 0
 498 42 1 1 1 -5.92114 2.5934 -2.99277 0 0 0
 499 42 1 1 1 -4.57513 2.30486 -3.02509 0 0 0
 500 42 1 1 1 -5.04757 1.87557 -3.33269 0 0 0
 501 42 1 1 1 -4.85473 2.91862 -2.30588 0 0 0
 502 42 1 1 1 -4.73321 2.38527 -2.23418 0 0 0
 503 42 1 1 1 -5.76307 2.51299 -3.78368 0 0 0
 504 42 1 1 1 -5.64154 1.97964 -3.71198 0 0 0
 505 43 1 1 1 -0.853869 3.49591 -3.23421 0 0 0
 506 43 1 1 1 -1.17598 3.35981 -3.69511 0 0 0
 507 43 1 1 1 -2.32277 2.93796 -2.04285 0 0 0
 508 43 1 1 1 -2.64489 2.80185 -2.50375 0 0 0
 509 43 1 1 1 -1.87653 2.49341 -2.78877 0 0 0
 510 43 1 1 1 -1.68731 2.85856 -3.47239 0 0 0
 511 43 1 1 1 -1.81144 3.43921 -2.26557 0 0 0
 512 43 1 1 1 -1.62223 3.80435 -2.94919 0 0 0
 513 43 1 1 1 -1.55441 2.62952 -2.32787 0 0 0
 514 43 1 1 1 -1.04308 3.13077 -2.55059 0 0 0
 515 43 1 1 1 -2.45567 3.167 -3.18737 0 0 0
 516 43 1 1 1 -1.94434 3.66825 -3.41009 0 0 0
 517 44 1 1 1 2.21608 3.46528 -2.54364 0 0 0
 518 44 1 1 1 1.77132 3.39093 -2.2941 0 0 0
 519 44 1 1 1 1.72744 4.30634 -3.16396 0 0 0
 520 44 1 1 1 1.28268 4.23198 -2.91443 0 0 0
 521 44 1 1 1 1.80808 4.2808 -2.54692 0 0 0
 522 44 1 1 1 1.56732 3.79869 -2.29574 0 0 0
 523 44 1 1 1 1.93144 3.89858 -3.16232 0 0 0
 524 44 1 1 1 1.69068 3.41647 -2.91114 0 0 0
 525 44 1 1 1 2.25284 4.35516 -2.79645 0 0 0
 526 44 1 1 1 2.45684 3.9474 -2.79481 0 0 0
 527 44 1 1 1 1.04192 3.74987 -2.66325 0 0 0
 528 44 1 1 1 1.24591 3.34211 -2.66161 0 0 0
 529 45 1 1 1 5.19087 5.12011 -2.18302 0 0 0
 530 45 1 1 1 4.8407 5.06605 -2.34198 0 0 0
 531 45 1 1 1 5.65557 4.03073 -2.83618 0 0 0
 532 45 1 1 1 5.3054 3.97666 -2.99514 0 0 0
 533 45 1 1 1 5.34314 4.5698 -3.02399 0 0 0
 534 45 1 1 1 4.91684 4.79089 -2.76246 0 0 0
 535 45 1 1 1 5.57944 4.30588 -2.4157 0 0 0
 536 45 1 1 1 5.15313 4.52697 -2.15418 0 0 0
 537 45 1 1 1 5.69332 4.62386 -2.86503 0 0 0
 538 45 1 1 1 5.61718 4.89902 -2.44455 0 0 0
 539 45 1 1 1 4.87909 4.19775 -2.73361 0 0 0
 540 45 1 1 1 4.80296 4.47291 -2.31313 0 0 0
 541 46 1 1 1 8.67709 5.69124 -2.19054 -1 0 0
 542 46 1 1 1 8.25011 5.39382 -2.45668 -1 0 0
 543 46 1 1 1 -8.25011 5.10245 -2.44159 0 0 0
 544 46 1 1 1 -8.67709 4.80504 -2.70772 0 0 0
 545 46 1 1 1 8.42821 5.04274 -3.17178 -1 0 0
 546 46 1 1 1 8.12567 5.06957 -2.9473 -1 0 0
 547 46 1 1 1 -8.12567 5.4267 -1.95096 0 0 0
 548 46 1 1 1 -8.42821 5.45354 -1.72648 0 0 0
 549 46 1 1 1 -8.6386 5.34015 -2.90565 0 0 0
 550 46 1 1 1 -8.51416 5.6644 -2.41503 0 0 0
 551 46 1 1 1 8.51416 4.83187 -2.48323 -1 0 0
 552 46 1 1 1 8.6386 5.15612 -1.99261 -1 0 0
 553 47 1 1 1 -4.71306 5.92273 -2.1776 0 0 0
 554 47 1 1 1 -5.02729 6.12049 -2.78425 0 0 0
 555 47 1 1 1 -5.46899 5.77529 -1.83411 0 0 0
 556 47 1 1 1 -5.78322 5.97304 -2.44076 0 0 0
 557 47 1 1 1 -5.31586 5.3731 -2.3599 0 0 0
 558 47 1 1 1 -5.32869 5.84567 -2.8754 0 0 0
 559 47 1 1 1 -5.16758 6.0501 -1.74296 0 0 0
 560 47 1 1 1 -5.18041 6.52267 -2.25846 0 0 0
 561 47 1 1 1 -5.00163 5.17535 -1.75325 0 0 0
 562 47 1 1 1 -4.70023 5.45016 -1.6621 0 0 0
 563 47 1 1 1 -5.79604 6.44561 -2.95626 0 0 0
 564 47 1 1 1 -5.49464 6.72043 -2.86511 0 0 0
 565 48 1 1 1 -2.12367 6.36233 -1.60398 0 0 0
 566 48 1 1 1 -2.31285 6.18045 -2.24161 0 0 0
 567 48 1 1 1 -1.18591 7.11483 -2.09685 0 0 0
 568 48 1 1 1 -1.37508 6.93295 -2.73448 0 0 0
 569 48 1 1 1 -1.8363 7.17075 -2.10695 0 0 0
 570 48 1 1 1 -2.16917 6.58466 -2.4931 0 0 0
 571 48 1 1 1 -1.32959 6.71062 -1.84536 0 0 0
 572 48 1 1 1 -1.66246 6.12453 -2.23151 0 0 0
 573 48 1 1 1 -1.64712 7.35263 -1.46932 0 0 0
 574 48 1 1 1 -1.79081 6.94842 -1.21783 0 0 0
 575 48 1 1 1 -1.70795 6.34686 -3.12063 0 0 0
 576 48 1 1 1 -1.85164 5.94265 -2.86914 0 0 0
 577 49 1 1 1 2.31255 6.74374 -2.04867 0 0 0
 578 49 1 1 1 2.13526 6.8009 -2.51341 0 0 0
 579 49 1 1 1 1.3635 7.89389 -1.54515 0 0 0
 580 49 1 1 1 1.1862 7.95105 -2.00989 0 0 0
 581 49 1 1 1 1.11074 7.33533 -2.38554 0 0 0
 582 49 1 1 1 1.53435 7.09669 -2.68184 0 0 0
 583 49 1 1 1 1.96441 7.59809 -1.37671 0 0 0
 584 49 1 1 1 2.38802 7.35945 -1.67302 0 0 0
 585 49 1 1 1 1.28804 7.27817 -1.9208 0 0 0
 586 49 1 1 1 1.88894 6.98237 -1.75237 0 0 0
 587 49 1 1 1 1.60981 7.71241 -2.30619 0 0 0
 588 49 1 1 1 2.21072 7.41661 -2.13776 0 0 0
 589 50 1 1 1 4.7186 8.06166 -2.16559 0 0 0
 590 50 1 1 1 5.10218 8.51663 -2.22876 0 0 0
 591 50 1 1 1 5.3941 7.57765 -1.5499 0 0 0
 592 50 1 1 1 5.77767 8.03262 -1.61307 0 0 0
 593 50 1 1 1 5.44827 8.59625 -1.38769 0 0 0
 594 50 1 1 1 5.46701 -8.70986 -1.83981 0 1 0
 595 50 1 1 1 5.02926 7.31036 -1.93885 0 0 0
 596 50 1 1 1 5.048 7.49804 -2.39097 0 0 0
 597 50 1 1 1 5.0647 8.14128 -1.32452 0 0 0
 598 50 1 1 1 4.69986 7.87398 -1.71347 0 0 0
 599 50 1 1 1 5.79641 8.2203 -2.06519 0 0 0
 600 50 1 1 1 5.43158 7.95301 -2.45414 0 0 0
 601 51 1 1 1 8.61783 -8.46887 -1.38482 -1 0 0
 602 51 1 1 1 -8.31715 -8.6397 -1.92456 0 0 0
 603 51 1 1 1 8.31715 8.6397 -1.5742 -1 -1 0
 604 51 1 1 1 -8.61783 8.46887 -2.11394 0 -1 0
 605 51 1 1 1 -8.3647 8.16001 -1.40414 0 -1 0
 606 51 1 1 1 -8.06152 8.42164 -1.93422 0 -1 0
 607 51 1 1 1 8.06152 -8.42164 -1.56454 -1 0 0
 608 51 1 1 1 8.3647 -8.16001 -2.09462 -1 0 0
 609 51 1 1 1 8.57029 8.33084 -0.864403 -1 -1 0
 610 51 1 1 1 8.31466 -8.7305 -0.854743 -1 0 0
 611 51 1 1 1 -8.31466 8.7305 -2.64402 0 -1 0
 612 51 1 1 1 -8.57029 -8.33084 -2.63435 0 0 0
 613 52 1 1 1 -5.71459 -8.11779 -1.35179 0 0 0
 614 52 1 1 1 -5.16216 -8.57197 -1.53125 0 0 0
 615 52 1 1 1 -5.33412 -7.52232 -1.68761 0 0 0
 616 52 1 1 1 -4.78168 -7.97649 -1.86706 0 0 0
 617 52 1 1 1 -5.03407 -8.46936 -2.41938 0 0 0
 618 52 1 1 1 -4.8219 8.74604 -2.06504 0 -1 0
 619 52 1 1 1 -5.67438 -7.34653 -1.15382 0 0 0
 620 52 1 1 1 -5.4622 -7.62492 -0.799477 0 0 0
 621 52 1 1 1 -5.58651 -8.01519 -2.23993 0 0 0
 622 52 1 1 1 -5.92677 -7.8394 -1.70614 0 0 0
 623 52 1 1 1 -4.56951 -8.25488 -1.51272 0 0 0
 624 52 1 1 1 -4.90976 -8.0791 -0.978928 0 0 0
 625 53 1 1 1 -2.31212 -6.8011 -1.98963 0 0 0
 626 53 1 1 1 -2.42627 -7.20695 -2.10805 0 0 0
 627 53 1 1 1 -1.07249 -7.48783 -0.830907 0 0 0
 628 53 1 1 1 -1.18663 -7.89369 -0.949324 0 0 0
 629 53 1 1 1 -1.3859 -7.84608 -1.67191 0 0 0
 630 53 1 1 1 -1.96316 -7.72944 -1.94919 0 0 0
 631 53 1 1 1 -1.5356 -6.96534 -0.98977 0 0 0
 632 53 1 1 1 -2.11286 -6.84871 -1.26705 0 0 0
 633 53 1 1 1 -1.27175 -7.44022 -1.55349 0 0 0
 634 53 1 1 1 -1.73486 -6.91773 -1.71235 0 0 0
 635 53 1 1 1 -1.76389 -7.77705 -1.2266 0 0 0
 636 53 1 1 1 -2.22701 -7.25456 -1.38547 0 0 0
 637 54 1 1 1 1.3711 -7.04192 -1.05057 0 0 0
 638 54 1 1 1 1.44011 -6.31624 -0.916121 0 0 0
 639 54 1 1 1 2.05865 -6.97904 -1.74293 0 0 0
 640 54 1 1 1 2.12766 -6.25336 -1.60849 0 0 0
 641 54 1 1 1 2.42387 -6.37975 -0.865547 0 0 0
 642 54 1 1 1 1.9665 -5.98515 -0.823612 0 0 0
 643 54 1 1 1 1.53226 -7.31013 -1.83544 0 0 0
 644 54 1 1 1 1.07489 -6.91553 -1.79351 0 0 0
 645 54 1 1 1 2.35485 -7.10543 -0.999991 0 0 0
 646 54 1 1 1 1.82847 -7.43651 -1.0925 0 0 0
 647 54 1 1 1 1.67029 -5.85877 -1.56656 0 0 0
 648 54 1 1 1 1.14391 -6.18985 -1.65906 0 0 0
 649 55 1 1 1 4.93682 -6.02545 -1.0474 0 0 0
 650 55 1 1 1 5.20526 -6.2621 -1.0393 0 0 0
 651 55 1 1 1 5.29101 -5.63368 -1.33986 0 0 0
 652 55 1 1 1 5.55945 -5.87033 -1.33176 0 0 0