LAMMPS data file for Nanoparticles
140 atoms
2 atom types
-11.05319173992757 11.05319173992757 xlo xhi
-11.05319173992757 11.05319173992757 ylo yhi
-0.5 0.5 zlo zhi

Atoms

1 1 1 1 10.5732 10.5732 0 0 0 0
 2 1 1 1 -10.9678 -10.9672 0 1 1 0
 3 1 1 1 -10.4024 -10.4012 0 1 1 0
 4 1 1 1 -9.83703 -9.83527 0 1 1 0
 5 1 1 1 -9.27163 -9.2693 0 1 1 0
 6 1 1 1 -8.70624 -8.70332 0 1 1 0
 7 1 1 1 9.44122 -10.4024 0 0 1 0
 8 1 1 1 10.0066 -9.83644 0 0 1 0
 9 1 1 1 10.572 -9.27046 0 0 1 0
 10 1 1 1 -10.969 -8.70448 0 1 1 0
 11 1 1 1 -10.4036 -8.13851 0 1 1 0
 12 1 1 1 -9.83819 -7.57253 0 1 1 0
 13 1 1 1 10.0072 -10.9678 0 0 1 0
 14 1 1 1 -9.27221 -8.13792 0 1 1 0
 15 1 1 1 10.5732 10.5732 0 0 0 0
 16 1 1 1 -10.9675 -10.9675 0 1 1 0
 17 1 1 1 -10.4018 -10.4018 0 1 1 0
 18 1 1 1 -9.83615 -9.83615 0 1 1 0
 19 1 1 1 -9.27046 -9.27046 0 1 1 0
 20 1 1 1 -8.70478 -8.70478 0 1 1 0
 21 1 1 1 9.44181 -10.4018 0 0 1 0
 22 1 1 1 10.0075 -9.83615 0 0 1 0
 23 1 1 1 10.5732 -9.27046 0 0 1 0
 24 1 1 1 -10.9675 -8.70478 0 1 1 0
 25 1 1 1 -10.4018 -8.13909 0 1 1 0
 26 1 1 1 -9.83615 -7.5734 0 1 1 0
 27 1 1 1 10.0075 -10.9675 0 0 1 0
 28 1 1 1 -9.27046 -8.13909 0 1 1 0
 29 1 1 1 10.5732 10.5732 0 0 0 0
 30 1 1 1 -10.9675 -10.9675 0 1 1 0
 31 1 1 1 -10.4018 -10.4018 0 1 1 0
 32 1 1 1 -9.83615 -9.83615 0 1 1 0
 33 1 1 1 -9.27046 -9.27046 0 1 1 0
 34 1 1 1 -8.70478 -8.70478 0 1 1 0
 35 1 1 1 9.44181 -10.4018 0 0 1 0
 36 1 1 1 10.0075 -9.83615 0 0 1 0
 37 1 1 1 10.5732 -9.27046 0 0 1 0
 38 1 1 1 -10.9675 -8.70478 0 1 1 0
 39 1 1 1 -10.4018 -8.13909 0 1 1 0
 40 1 1 1 -9.83615 -7.5734 0 1 1 0
 41 1 1 1 10.0075 -10.9675 0 0 1 0
 42 1 1 1 -9.27046 -8.13909 0 1 1 0
 43 1 1 1 10.5732 10.5732 0 0 0 0
 44 1 1 1 -10.9675 -10.9675 0 1 1 0
 45 1 1 1 -10.4018 -10.4018 0 1 1 0
 46 1 1 1 -9.83615 -9.83615 0 1 1 0
 47 1 1 1 -9.27046 -9.27046 0 1 1 0
 48 1 1 1 -8.70478 -8.70478 0 1 1 0
 49 1 1 1 9.44181 -10.4018 0 0 1 0
 50 1 1 1 10.0075 -9.83615 0 0 1 0
 51 1 1 1 10.5732 -9.27046 0 0 1 0
 52 1 1 1 -10.9675 -8.70478 0 1 1 0
 53 1 1 1 -10.4018 -8.13909 0 1 1 0
 54 1 1 1 -9.83615 -7.5734 0 1 1 0
 55 1 1 1 10.0075 -10.9675 0 0 1 0
 56 1 1 1 -9.27046 -8.13909 0 1 1 0
 57 1 1 1 10.5732 10.5732 0 0 0 0
 58 1 1 1 -10.9675 -10.9675 0 1 1 0
 59 1 1 1 -10.4018 -10.4018 0 1 1 0
 60 1 1 1 -9.83615 -9.83615 0 1 1 0
 61 1 1 1 -9.27046 -9.27046 0 1 1 0
 62 1 1 1 -8.70478 -8.70478 0 1 1 0
 63 1 1 1 9.44181 -10.4018 0 0 1 0
 64 1 1 1 10.0075 -9.83615 0 0 1 0
 65 1 1 1 10.5732 -9.27046 0 0 1 0
 66 1 1 1 -10.9675 -8.70478 0 1 1 0
 67 1 1 1 -10.4018 -8.13909 0 1 1 0
 68 1 1 1 -9.83615 -7.5734 0 1 1 0
 69 1 1 1 10.0075 -10.9675 0 0 1 0
 70 1 1 1 -9.27046 -8.13909 0 1 1 0
 71 1 1 1 10.5732 10.5732 0 0 0 0
 72 1 1 1 -10.9675 -10.9675 0 1 1 0
 73 1 1 1 -10.4018 -10.4018 0 1 1 0
 74 1 1 1 -9.83615 -9.83615 0 1 1 0
 75 1 1 1 -9.27046 -9.27046 0 1 1 0
 76 1 1 1 -8.70478 -8.70478 0 1 1 0
 77 1 1 1 9.44181 -10.4018 0 0 1 0
 78 1 1 1 10.0075 -9.83615 0 0 1 0
 79 1 1 1 10.5732 -9.27046 0 0 1 0
 80 1 1 1 -10.9675 -8.70478 0 1 1 0
 81 1 1 1 -10.4018 -8.13909 0 1 1 0
 82 1 1 1 -9.83615 -7.5734 0 1 1 0
 83 1 1 1 10.0075 -10.9675 0 0 1 0
 84 1 1 1 -9.27046 -8.13909 0 1 1 0
 85 1 1 1 10.5732 10.5732 0 0 0 0
 86 1 1 1 -10.9675 -10.9675 0 1 1 0
 87 1 1 1 -10.4018 -10.4018 0 1 1 0
 88 1 1 1 -9.83615 -9.83615 0 1 1 0
 89 1 1 1 -9.27046 -9.27046 0 1 1 0
 90 1 1 1 -8.70478 -8.70478 0 1 1 0
 91 1 1 1 9.44181 -10.4018 0 0 1 0
 92 1 1 1 10.0075 -9.83615 0 0 1 0
 93 1 1 1 10.5732 -9.27046 0 0 1 0
 94 1 1 1 -10.9675 -8.70478 0 1 1 0
 95 1 1 1 -10.4018 -8.13909 0 1 1 0
 96 1 1 1 -9.83615 -7.5734 0 1 1 0
 97 1 1 1 10.0075 -10.9675 0 0 1 0
 98 1 1 1 -9.27046 -8.13909 0 1 1 0
 99 1 1 1 10.5732 10.5732 0 0 0 0
 100 1 1 1 -10.9675 -10.9675 0 1 1 0
 101 1 1 1 -10.4018 -10.4018 0 1 1 0
 102 1 1 1 -9.83615 -9.83615 0 1 1 0
 103 1 1 1 -9.27046 -9.27046 0 1 1 0
 104 1 1 1 -8.70478 -8.70478 0 1 1 0
 105 1 1 1 9.44181 -10.4018 0 0 1 0
 106 1 1 1 10.0075 -9.83615 0 0 1 0
 107 1 1 1 10.5732 -9.27046 0 0 1 0
 108 1 1 1 -10.9675 -8.70478 0 1 1 0
 109 1 1 1 -10.4018 -8.13909 0 1 1 0
 110 1 1 1 -9.83615 -7.5734 0 1 1 0
 111 1 1 1 10.0075 -10.9675 0 0 1 0
 112 1 1 1 -9.27046 -8.13909 0 1 1 0
 113 1 1 1 10.5732 10.5732 0 0 0 0
 114 1 1 1 -10.9675 -10.9675 0 1 1 0
 115 1 1 1 -10.4018 -10.4018 0 1 1 0
 116 1 1 1 -9.83615 -9.83615 0 1 1 0
 117 1 1 1 -9.27046 -9.27046 0 1 1 0
 118 1 1 1 -8.70478 -8.70478 0 1 1 0
 119 1 1 1 9.44181 -10.4018 0 0 1 0
 120 1 1 1 10.0075 -9.83615 0 0 1 0
 121 1 1 1 10.5732 -9.27046 0 0 1 0
 122 1 1 1 -10.9675 -8.70478 0 1 1 0
 123 1 1 1 -10.4018 -8.13909 0 1 1 0
 124 1 1 1 -9.83615 -7.5734 0 1 1 0
 125 1 1 1 10.0075 -10.9675 0 0 1 0
 126 1 1 1 -9.27046 -8.13909 0 1 1 0
 127 1 1 1 10.5732 10.5732 0 0 0 0
 128 1 1 1 -10.9675 -10.9675 0 1 1 0
 129 1 1 1 -10.4018 -10.4018 0 1 1 0
 130 1 1 1 -9.83615 -9.83615 0 1 1 0
 131 1 1 1 -9.27046 -9.27046 0 1 1 0
 132 1 1 1 -8.70478 -8.70478 0 1 1 0
 133 1 1 1 9.44181 -10.4018 0 0 1 0
 134 1 1 1 10.0075 -9.83615 0 0 1 0
 135 1 1 1 10.5732 -9.27046 0 0 1 0
 136 1 1 1 -10.9675 -8.70478 0 1 1 0
 137 1 1 1 -10.4018 -8.13909 0 1 1 0
 138 1 1 1 -9.83615 -7.5734 0 1 1 0
 139 1 1 1 10.0075 -10.9675 0 0 1 0
 140 1 1 1 -9.27046 -8.13909 0 1 1 0
 
Molecules

1 1
 2 1
 3 1
 4 1
 5 1
 6 1
 7 1
 8 1
 9 1
 10 1
 11 1
 12 1
 13 1
 14 1
 15 2
 16 2
 17 2
 18 2
 19 2
 20 2
 21 2
 22 2
 23 2
 24 2
 25 2
 26 2
 27 2
 28 2
 29 3
 30 3
 31 3
 32 3
 33 3
 34 3
 35 3
 36 3
 37 3
 38 3
 39 3
 40 3
 41 3
 42 3
 43 4
 44 4
 45 4
 46 4
 47 4
 48 4
 49 4
 50 4
 51 4
 52 4
 53 4
 54 4
 55 4
 56 4
 57 5
 58 5
 59 5
 60 5
 61 5
 62 5
 63 5
 64 5
 65 5
 66 5
 67 5
 68 5
 69 5
 70 5
 71 6
 72 6
 73 6
 74 6
 75 6
 76 6
 77 6
 78 6
 79 6
 80 6
 81 6
 82 6
 83 6
 84 6
 85 7
 86 7
 87 7
 88 7
 89 7
 90 7
 91 7
 92 7
 93 7
 94 7
 95 7
 96 7
 97 7
 98 7
 99 8
 100 8
 101 8
 102 8
 103 8
 104 8
 105 8
 106 8
 107 8
 108 8
 109 8
 110 8
 111 8
 112 8
 113 9
 114 9
 115 9
 116 9
 117 9
 118 9
 119 9
 120 9
 121 9
 122 9
 123 9
 124 9
 125 9
 126 9
 127 10
 128 10
 129 10
 130 10
 131 10
 132 10
 133 10
 134 10
 135 10
 136 10
 137 10
 138 10
 139 10
 140 10
 