ITEM: TIMESTEP
0
ITEM: NUMBER OF ATOMS
27408
ITEM: BOX BOUNDS pp pp pp
-1.1053191739927570e+01 1.1053191739927570e+01
-1.1053191739927570e+01 1.1053191739927570e+01
-5.0000000000000000e-01 5.0000000000000000e-01
ITEM: ATOMS id type xs ys zs
1 1 0.975711 0.339052 0.5
2 1 0.98301 0.374497 0.5
3 1 0.990309 0.409943 0.5
4 1 0.997609 0.445385 0.5
5 1 0.0049092 0.48083 0.5
6 1 0.0122086 0.516274 0.5
7 1 0.904821 0.35365 0.5
8 1 0.91212 0.389094 0.5
9 1 0.91942 0.424539 0.5
10 1 0.926719 0.459984 0.5
11 1 0.934019 0.495429 0.5
12 1 0.941319 0.530874 0.5
13 1 0.940266 0.346351 0.5
14 1 0.976764 0.523574 0.5
15 1 0.376305 0.84933 0.5
16 1 0.349866 0.824621 0.5
17 1 0.323425 0.799911 0.5
18 1 0.296987 0.775203 0.5
19 1 0.270547 0.750494 0.5
20 1 0.244107 0.725784 0.5
21 1 0.425725 0.79645 0.5
22 1 0.399285 0.771742 0.5
23 1 0.372844 0.747033 0.5
24 1 0.346405 0.722323 0.5
25 1 0.319964 0.697614 0.5
26 1 0.293526 0.672904 0.5
27 1 0.401016 0.82289 0.5
28 1 0.268816 0.699344 0.5
29 1 0.0144255 0.208297 0.5
30 1 0.0323659 0.239725 0.5
31 1 0.0503068 0.271155 0.5
32 1 0.0682462 0.302581 0.5
33 1 0.0861868 0.33401 0.5
34 1 0.104127 0.365438 0.5
35 1 0.951567 0.244178 0.5
36 1 0.969508 0.275605 0.5
37 1 0.987449 0.307034 0.5
38 1 0.00538986 0.338462 0.5
39 1 0.0233309 0.369891 0.5
40 1 0.0412698 0.40132 0.5
41 1 0.982996 0.226237 0.5
42 1 0.0726986 0.383379 0.5
43 1 0.310934 0.0509107 0.5
44 1 0.275451 0.0580212 0.5
45 1 0.239967 0.0651319 0.5
46 1 0.204486 0.072242 0.5
47 1 0.169003 0.0793526 0.5
48 1 0.13352 0.0864631 0.5
49 1 0.296713 0.979943 0.5
50 1 0.261231 0.987055 0.5
51 1 0.225747 0.994166 0.5
52 1 0.190264 0.00127638 0.5
53 1 0.154781 0.00838735 0.5
54 1 0.119298 0.0154964 0.5
55 1 0.303824 0.0154269 0.5
56 1 0.126409 0.0509799 0.5
57 1 0.750476 0.74108 0.5
58 1 0.777489 0.76516 0.5
59 1 0.804504 0.789242 0.5
60 1 0.831516 0.813321 0.5
61 1 0.85853 0.837402 0.5
62 1 0.885543 0.861482 0.5
63 1 0.702314 0.795108 0.5
64 1 0.729327 0.819187 0.5
65 1 0.756342 0.843268 0.5
66 1 0.783355 0.867348 0.5
67 1 0.81037 0.891429 0.5
68 1 0.837382 0.91551 0.5
69 1 0.726394 0.768094 0.5
70 1 0.861463 0.888496 0.5
71 1 0.0929303 0.642157 0.5
72 1 0.0839475 0.607101 0.5
73 1 0.0749644 0.572044 0.5
74 1 0.065982 0.53699 0.5
75 1 0.0569991 0.501934 0.5
76 1 0.0480163 0.466878 0.5
77 1 0.163043 0.624191 0.5
78 1 0.15406 0.589136 0.5
79 1 0.145076 0.55408 0.5
80 1 0.136093 0.519024 0.5
81 1 0.12711 0.483967 0.5
82 1 0.118129 0.448912 0.5
83 1 0.127987 0.633174 0.5
84 1 0.0830722 0.457895 0.5
85 1 0.446134 0.437957 0.5
86 1 0.444399 0.40181 0.5
87 1 0.442663 0.365662 0.5
88 1 0.440927 0.329517 0.5
89 1 0.439192 0.29337 0.5
90 1 0.437456 0.257223 0.5
91 1 0.518429 0.434486 0.5
92 1 0.516692 0.39834 0.5
93 1 0.514956 0.362192 0.5
94 1 0.513221 0.326045 0.5
95 1 0.511485 0.289898 0.5
96 1 0.50975 0.253752 0.5
97 1 0.482282 0.436222 0.5
98 1 0.473603 0.255487 0.5
99 1 0.751661 0.85454 0.5
100 1 0.777561 0.829266 0.5
101 1 0.803463 0.803992 0.5
102 1 0.829362 0.778719 0.5
103 1 0.855262 0.753445 0.5
104 1 0.881163 0.728171 0.5
105 1 0.802209 0.906342 0.5
106 1 0.828108 0.881068 0.5
107 1 0.854009 0.855793 0.5
108 1 0.87991 0.830519 0.5
109 1 0.90581 0.805245 0.5
110 1 0.931711 0.779972 0.5
111 1 0.776935 0.880441 0.5
112 1 0.906437 0.754072 0.5
113 1 0.433013 0.338491 0.5
114 1 0.46517 0.355092 0.5
115 1 0.497327 0.371692 0.5
116 1 0.529482 0.388292 0.5
117 1 0.561639 0.404892 0.5
118 1 0.593795 0.421493 0.5
119 1 0.399812 0.402805 0.5
120 1 0.431968 0.419404 0.5
121 1 0.464125 0.436004 0.5
122 1 0.496282 0.452605 0.5
123 1 0.528439 0.469205 0.5
124 1 0.560594 0.485806 0.5
125 1 0.416412 0.370648 0.5
126 1 0.577195 0.453649 0.5
127 1 0.877471 0.105149 0.5
128 1 0.902635 0.131155 0.5
129 1 0.927801 0.157163 0.5
130 1 0.952964 0.183168 0.5
131 1 0.978129 0.209175 0.5
132 1 0.00329323 0.235182 0.5
133 1 0.825456 0.155479 0.5
134 1 0.850621 0.181484 0.5
135 1 0.875787 0.207491 0.5
136 1 0.900951 0.233497 0.5
137 1 0.926116 0.259504 0.5
138 1 0.95128 0.285511 0.5
139 1 0.851463 0.130313 0.5
140 1 0.977287 0.260347 0.5
141 2 0.00444232 0.00444232 0.5
142 2 0.00934883 0.00444232 0.5
143 2 0.0142553 0.00444232 0.5
144 2 0.0191619 0.00444232 0.5
145 2 0.0240684 0.00444232 0.5
146 2 0.0289749 0.00444232 0.5
147 2 0.0338814 0.00444232 0.5
148 2 0.0387879 0.00444232 0.5
149 2 0.0436944 0.00444232 0.5
150 2 0.0486009 0.00444232 0.5
151 2 0.0535074 0.00444232 0.5
152 2 0.0584139 0.00444232 0.5
153 2 0.0633205 0.00444232 0.5
154 2 0.068227 0.00444232 0.5
155 2 0.0731335 0.00444232 0.5
156 2 0.995558 0.995558 0.5
157 2 0.990651 0.995558 0.5
158 2 0.985745 0.995558 0.5
159 2 0.980838 0.995558 0.5
160 2 0.975932 0.995558 0.5
161 2 0.971025 0.995558 0.5
162 2 0.966119 0.995558 0.5
163 2 0.961212 0.995558 0.5
164 2 0.956306 0.995558 0.5
165 2 0.951399 0.995558 0.5
166 2 0.946493 0.995558 0.5
167 2 0.941586 0.995558 0.5
168 2 0.93668 0.995558 0.5
169 2 0.931773 0.995558 0.5
170 2 0.926867 0.995558 0.5
171 2 0.92196 0.995558 0.5
172 2 0.917053 0.995558 0.5
173 2 0.912147 0.995558 0.5
174 2 0.90724 0.995558 0.5
175 2 0.902334 0.995558 0.5
176 2 0.897427 0.995558 0.5
177 2 0.892521 0.995558 0.5
178 2 0.887614 0.995558 0.5
179 2 0.882708 0.995558 0.5
180 2 0.877801 0.995558 0.5
181 2 0.872895 0.995558 0.5
182 2 0.867988 0.995558 0.5
183 2 0.863082 0.995558 0.5
184 2 0.858175 0.995558 0.5
185 2 0.853269 0.995558 0.5
186 2 0.848362 0.995558 0.5
187 2 0.843456 0.995558 0.5
188 2 0.838549 0.995558 0.5
189 2 0.833643 0.995558 0.5
190 2 0.828736 0.995558 0.5
191 2 0.82383 0.995558 0.5
192 2 0.818923 0.995558 0.5
193 2 0.814017 0.995558 0.5
194 2 0.80911 0.995558 0.5
195 2 0.804204 0.995558 0.5
196 2 0.799297 0.995558 0.5
197 2 0.794391 0.995558 0.5
198 2 0.789484 0.995558 0.5
199 2 0.784578 0.995558 0.5
200 2 0.779671 0.995558 0.5
201 2 0.774765 0.995558 0.5
202 2 0.769858 0.995558 0.5
203 2 0.764952 0.995558 0.5
204 2 0.760045 0.995558 0.5
205 2 0.755139 0.995558 0.5
206 2 0.750232 0.995558 0.5
207 2 0.745326 0.995558 0.5
208 2 0.740419 0.995558 0.5
209 2 0.735513 0.995558 0.5
210 2 0.730606 0.995558 0.5
211 2 0.347898 0.00444232 0.5
212 2 0.352805 0.00444232 0.5
213 2 0.357711 0.00444232 0.5
214 2 0.362618 0.00444232 0.5
215 2 0.367524 0.00444232 0.5
216 2 0.372431 0.00444232 0.5
217 2 0.377337 0.00444232 0.5
218 2 0.382244 0.00444232 0.5
219 2 0.38715 0.00444232 0.5
220 2 0.392057 0.00444232 0.5
221 2 0.396963 0.00444232 0.5
222 2 0.40187 0.00444232 0.5
223 2 0.406776 0.00444232 0.5
224 2 0.411683 0.00444232 0.5
225 2 0.416589 0.00444232 0.5
226 2 0.421496 0.00444232 0.5
227 2 0.426402 0.00444232 0.5
228 2 0.431309 0.00444232 0.5
229 2 0.436215 0.00444232 0.5
230 2 0.441122 0.00444232 0.5
231 2 0.446028 0.00444232 0.5
232 2 0.450935 0.00444232 0.5
233 2 0.455841 0.00444232 0.5
234 2 0.460748 0.00444232 0.5
235 2 0.465654 0.00444232 0.5
236 2 0.470561 0.00444232 0.5
237 2 0.475467 0.00444232 0.5
238 2 0.480374 0.00444232 0.5
239 2 0.48528 0.00444232 0.5
240 2 0.490187 0.00444232 0.5
241 2 0.495093 0.00444232 0.5
242 2 0.5 0.00444232 0.5
243 2 0.504907 0.00444232 0.5
244 2 0.509813 0.00444232 0.5
245 2 0.51472 0.00444232 0.5
246 2 0.519626 0.00444232 0.5
247 2 0.524533 0.00444232 0.5
248 2 0.529439 0.00444232 0.5
249 2 0.534346 0.00444232 0.5
250 2 0.539252 0.00444232 0.5
251 2 0.544159 0.00444232 0.5
252 2 0.549065 0.00444232 0.5
253 2 0.553972 0.00444232 0.5
254 2 0.558878 0.00444232 0.5
255 2 0.563785 0.00444232 0.5
256 2 0.568691 0.00444232 0.5
257 2 0.573598 0.00444232 0.5
258 2 0.578504 0.00444232 0.5
259 2 0.583411 0.00444232 0.5
260 2 0.588317 0.00444232 0.5
261 2 0.593224 0.00444232 0.5
262 2 0.59813 0.00444232 0.5
263 2 0.603037 0.00444232 0.5
264 2 0.607943 0.00444232 0.5
265 2 0.61285 0.00444232 0.5
266 2 0.617756 0.00444232 0.5
267 2 0.622663 0.00444232 0.5
268 2 0.627569 0.00444232 0.5
269 2 0.632476 0.00444232 0.5
270 2 0.637382 0.00444232 0.5
271 2 0.642289 0.00444232 0.5
272 2 0.647195 0.00444232 0.5
273 2 0.652102 0.00444232 0.5
274 2 0.657008 0.00444232 0.5
275 2 0.661915 0.00444232 0.5
276 2 0.666821 0.00444232 0.5
277 2 0.671728 0.00444232 0.5
278 2 0.676634 0.00444232 0.5
279 2 0.681541 0.00444232 0.5
280 2 0.686447 0.00444232 0.5
281 2 0.691354 0.00444232 0.5
282 2 0.69626 0.00444232 0.5
283 2 0.701167 0.00444232 0.5
284 2 0.706073 0.00444232 0.5
285 2 0.71098 0.00444232 0.5
286 2 0.715887 0.00444232 0.5
287 2 0.720793 0.00444232 0.5
288 2 0.7257 0.00444232 0.5
289 2 0.730606 0.00444232 0.5
290 2 0.735513 0.00444232 0.5
291 2 0.740419 0.00444232 0.5
292 2 0.745326 0.00444232 0.5
293 2 0.750232 0.00444232 0.5
294 2 0.755139 0.00444232 0.5
295 2 0.760045 0.00444232 0.5
296 2 0.764952 0.00444232 0.5
297 2 0.769858 0.00444232 0.5
298 2 0.774765 0.00444232 0.5
299 2 0.779671 0.00444232 0.5
300 2 0.784578 0.00444232 0.5
301 2 0.789484 0.00444232 0.5
302 2 0.794391 0.00444232 0.5
303 2 0.799297 0.00444232 0.5
304 2 0.804204 0.00444232 0.5
305 2 0.80911 0.00444232 0.5
306 2 0.814017 0.00444232 0.5
307 2 0.818923 0.00444232 0.5
308 2 0.82383 0.00444232 0.5
309 2 0.828736 0.00444232 0.5
310 2 0.833643 0.00444232 0.5
311 2 0.838549 0.00444232 0.5
312 2 0.843456 0.00444232 0.5
313 2 0.848362 0.00444232 0.5
314 2 0.853269 0.00444232 0.5
315 2 0.858175 0.00444232 0.5
316 2 0.863082 0.00444232 0.5
317 2 0.867988 0.00444232 0.5
318 2 0.872895 0.00444232 0.5
319 2 0.877801 0.00444232 0.5
320 2 0.882708 0.00444232 0.5
321 2 0.887614 0.00444232 0.5
322 2 0.892521 0.00444232 0.5
323 2 0.897427 0.00444232 0.5
324 2 0.902334 0.00444232 0.5
325 2 0.90724 0.00444232 0.5
326 2 0.912147 0.00444232 0.5
327 2 0.917053 0.00444232 0.5
328 2 0.92196 0.00444232 0.5
329 2 0.926867 0.00444232 0.5
330 2 0.931773 0.00444232 0.5
331 2 0.93668 0.00444232 0.5
332 2 0.941586 0.00444232 0.5
333 2 0.946493 0.00444232 0.5
334 2 0.951399 0.00444232 0.5
335 2 0.956306 0.00444232 0.5
336 2 0.961212 0.00444232 0.5
337 2 0.966119 0.00444232 0.5
338 2 0.971025 0.00444232 0.5
339 2 0.975932 0.00444232 0.5
340 2 0.980838 0.00444232 0.5
341 2 0.985745 0.00444232 0.5
342 2 0.990651 0.00444232 0.5
343 2 0.995558 0.00444232 0.5
344 2 0.00444232 0.00934883 0.5
345 2 0.00934883 0.00934883 0.5
346 2 0.0142553 0.00934883 0.5
347 2 0.0191619 0.00934883 0.5
348 2 0.0240684 0.00934883 0.5
349 2 0.0289749 0.00934883 0.5
350 2 0.0338814 0.00934883 0.5
351 2 0.0387879 0.00934883 0.5
352 2 0.0436944 0.00934883 0.5
353 2 0.0486009 0.00934883 0.5
354 2 0.0535074 0.00934883 0.5
355 2 0.0584139 0.00934883 0.5
356 2 0.0633205 0.00934883 0.5
357 2 0.068227 0.00934883 0.5
358 2 0.0731335 0.00934883 0.5
359 2 0.7257 0.995558 0.5
360 2 0.720793 0.995558 0.5
361 2 0.715887 0.995558 0.5
362 2 0.71098 0.995558 0.5
363 2 0.706073 0.995558 0.5
364 2 0.701167 0.995558 0.5
365 2 0.69626 0.995558 0.5
366 2 0.691354 0.995558 0.5
367 2 0.686447 0.995558 0.5
368 2 0.681541 0.995558 0.5
369 2 0.676634 0.995558 0.5
370 2 0.671728 0.995558 0.5
371 2 0.666821 0.995558 0.5
372 2 0.661915 0.995558 0.5
373 2 0.657008 0.995558 0.5
374 2 0.652102 0.995558 0.5
375 2 0.647195 0.995558 0.5
376 2 0.642289 0.995558 0.5
377 2 0.637382 0.995558 0.5
378 2 0.632476 0.995558 0.5
379 2 0.627569 0.995558 0.5
380 2 0.622663 0.995558 0.5
381 2 0.617756 0.995558 0.5
382 2 0.61285 0.995558 0.5
383 2 0.607943 0.995558 0.5
384 2 0.603037 0.995558 0.5
385 2 0.59813 0.995558 0.5
386 2 0.593224 0.995558 0.5
387 2 0.588317 0.995558 0.5
388 2 0.583411 0.995558 0.5
389 2 0.578504 0.995558 0.5
390 2 0.573598 0.995558 0.5
391 2 0.568691 0.995558 0.5
392 2 0.563785 0.995558 0.5
393 2 0.558878 0.995558 0.5
394 2 0.553972 0.995558 0.5
395 2 0.549065 0.995558 0.5
396 2 0.544159 0.995558 0.5
397 2 0.539252 0.995558 0.5
398 2 0.534346 0.995558 0.5
399 2 0.529439 0.995558 0.5
400 2 0.524533 0.995558 0.5
401 2 0.519626 0.995558 0.5
402 2 0.51472 0.995558 0.5
403 2 0.509813 0.995558 0.5
404 2 0.504907 0.995558 0.5
405 2 0.5 0.995558 0.5
406 2 0.495093 0.995558 0.5
407 2 0.490187 0.995558 0.5
408 2 0.48528 0.995558 0.5
409 2 0.480374 0.995558 0.5
410 2 0.475467 0.995558 0.5
411 2 0.470561 0.995558 0.5
412 2 0.465654 0.995558 0.5
413 2 0.460748 0.995558 0.5
414 2 0.455841 0.995558 0.5
415 2 0.352805 0.00934883 0.5
416 2 0.357711 0.00934883 0.5
417 2 0.362618 0.00934883 0.5
418 2 0.367524 0.00934883 0.5
419 2 0.372431 0.00934883 0.5
420 2 0.377337 0.00934883 0.5
421 2 0.382244 0.00934883 0.5
422 2 0.38715 0.00934883 0.5
423 2 0.392057 0.00934883 0.5
424 2 0.396963 0.00934883 0.5
425 2 0.40187 0.00934883 0.5
426 2 0.406776 0.00934883 0.5
427 2 0.411683 0.00934883 0.5
428 2 0.416589 0.00934883 0.5
429 2 0.421496 0.00934883 0.5
430 2 0.426402 0.00934883 0.5
431 2 0.431309 0.00934883 0.5
432 2 0.436215 0.00934883 0.5
433 2 0.441122 0.00934883 0.5
434 2 0.446028 0.00934883 0.5
435 2 0.450935 0.00934883 0.5
436 2 0.455841 0.00934883 0.5
437 2 0.460748 0.00934883 0.5
438 2 0.465654 0.00934883 0.5
439 2 0.470561 0.00934883 0.5
440 2 0.475467 0.00934883 0.5
441 2 0.480374 0.00934883 0.5
442 2 0.48528 0.00934883 0.5
443 2 0.490187 0.00934883 0.5
444 2 0.495093 0.00934883 0.5
445 2 0.5 0.00934883 0.5
446 2 0.504907 0.00934883 0.5
447 2 0.509813 0.00934883 0.5
448 2 0.51472 0.00934883 0.5
449 2 0.519626 0.00934883 0.5
450 2 0.524533 0.00934883 0.5
451 2 0.529439 0.00934883 0.5
452 2 0.534346 0.00934883 0.5
453 2 0.539252 0.00934883 0.5
454 2 0.544159 0.00934883 0.5
455 2 0.549065 0.00934883 0.5
456 2 0.553972 0.00934883 0.5
457 2 0.558878 0.00934883 0.5
458 2 0.563785 0.00934883 0.5
459 2 0.568691 0.00934883 0.5
460 2 0.573598 0.00934883 0.5
461 2 0.578504 0.00934883 0.5
462 2 0.583411 0.00934883 0.5
463 2 0.588317 0.00934883 0.5
464 2 0.593224 0.00934883 0.5
465 2 0.59813 0.00934883 0.5
466 2 0.603037 0.00934883 0.5
467 2 0.607943 0.00934883 0.5
468 2 0.61285 0.00934883 0.5
469 2 0.617756 0.00934883 0.5
470 2 0.622663 0.00934883 0.5
471 2 0.627569 0.00934883 0.5
472 2 0.632476 0.00934883 0.5
473 2 0.637382 0.00934883 0.5
474 2 0.642289 0.00934883 0.5
475 2 0.647195 0.00934883 0.5
476 2 0.652102 0.00934883 0.5
477 2 0.657008 0.00934883 0.5
478 2 0.661915 0.00934883 0.5
479 2 0.666821 0.00934883 0.5
480 2 0.671728 0.00934883 0.5
481 2 0.676634 0.00934883 0.5
482 2 0.681541 0.00934883 0.5
483 2 0.686447 0.00934883 0.5
484 2 0.691354 0.00934883 0.5
485 2 0.69626 0.00934883 0.5
486 2 0.701167 0.00934883 0.5
487 2 0.706073 0.00934883 0.5
488 2 0.71098 0.00934883 0.5
489 2 0.715887 0.00934883 0.5
490 2 0.720793 0.00934883 0.5
491 2 0.7257 0.00934883 0.5
492 2 0.730606 0.00934883 0.5
493 2 0.735513 0.00934883 0.5
494 2 0.740419 0.00934883 0.5
495 2 0.745326 0.00934883 0.5
496 2 0.750232 0.00934883 0.5
497 2 0.755139 0.00934883 0.5
498 2 0.760045 0.00934883 0.5
499 2 0.764952 0.00934883 0.5
500 2 0.769858 0.00934883 0.5
501 2 0.774765 0.00934883 0.5
502 2 0.779671 0.00934883 0.5
503 2 0.784578 0.00934883 0.5
504 2 0.789484 0.00934883 0.5
505 2 0.794391 0.00934883 0.5
506 2 0.799297 0.00934883 0.5
507 2 0.804204 0.00934883 0.5
508 2 0.80911 0.00934883 0.5
509 2 0.814017 0.00934883 0.5
510 2 0.818923 0.00934883 0.5
511 2 0.82383 0.00934883 0.5
512 2 0.828736 0.00934883 0.5
513 2 0.833643 0.00934883 0.5
514 2 0.838549 0.00934883 0.5
515 2 0.843456 0.00934883 0.5
516 2 0.848362 0.00934883 0.5
517 2 0.853269 0.00934883 0.5
518 2 0.858175 0.00934883 0.5
519 2 0.863082 0.00934883 0.5
520 2 0.867988 0.00934883 0.5
521 2 0.872895 0.00934883 0.5
522 2 0.877801 0.00934883 0.5
523 2 0.882708 0.00934883 0.5
524 2 0.887614 0.00934883 0.5
525 2 0.892521 0.00934883 0.5
526 2 0.897427 0.00934883 0.5
527 2 0.902334 0.00934883 0.5
528 2 0.90724 0.00934883 0.5
529 2 0.912147 0.00934883 0.5
530 2 0.917053 0.00934883 0.5
531 2 0.92196 0.00934883 0.5
532 2 0.926867 0.00934883 0.5
533 2 0.931773 0.00934883 0.5
534 2 0.93668 0.00934883 0.5
535 2 0.941586 0.00934883 0.5
536 2 0.946493 0.00934883 0.5
537 2 0.951399 0.00934883 0.5
538 2 0.956306 0.00934883 0.5
539 2 0.961212 0.00934883 0.5
540 2 0.966119 0.00934883 0.5
541 2 0.971025 0.00934883 0.5
542 2 0.975932 0.00934883 0.5
543 2 0.980838 0.00934883 0.5
544 2 0.985745 0.00934883 0.5
545 2 0.990651 0.00934883 0.5
546 2 0.995558 0.00934883 0.5
547 2 0.00444232 0.0142553 0.5
548 2 0.00934883 0.0142553 0.5
549 2 0.0142553 0.0142553 0.5
550 2 0.0191619 0.0142553 0.5
551 2 0.0240684 0.0142553 0.5
552 2 0.0289749 0.0142553 0.5
553 2 0.0338814 0.0142553 0.5
554 2 0.0387879 0.0142553 0.5
555 2 0.0436944 0.0142553 0.5
556 2 0.0486009 0.0142553 0.5
557 2 0.0535074 0.0142553 0.5
558 2 0.0584139 0.0142553 0.5
559 2 0.0633205 0.0142553 0.5
560 2 0.068227 0.0142553 0.5
561 2 0.0731335 0.0142553 0.5
562 2 0.450935 0.995558 0.5
563 2 0.446028 0.995558 0.5
564 2 0.441122 0.995558 0.5
565 2 0.436215 0.995558 0.5
566 2 0.431309 0.995558 0.5
567 2 0.426402 0.995558 0.5
568 2 0.421496 0.995558 0.5
569 2 0.416589 0.995558 0.5
570 2 0.411683 0.995558 0.5
571 2 0.406776 0.995558 0.5
572 2 0.40187 0.995558 0.5
573 2 0.396963 0.995558 0.5
574 2 0.392057 0.995558 0.5
575 2 0.38715 0.995558 0.5
576 2 0.382244 0.995558 0.5
577 2 0.377337 0.995558 0.5
578 2 0.372431 0.995558 0.5
579 2 0.367524 0.995558 0.5
580 2 0.362618 0.995558 0.5
581 2 0.357711 0.995558 0.5
582 2 0.352805 0.995558 0.5
583 2 0.347898 0.995558 0.5
584 2 0.07804 0.995558 0.5
585 2 0.0731335 0.995558 0.5
586 2 0.068227 0.995558 0.5
587 2 0.0633205 0.995558 0.5
588 2 0.0584139 0.995558 0.5
589 2 0.0535074 0.995558 0.5
590 2 0.0486009 0.995558 0.5
591 2 0.0436944 0.995558 0.5
592 2 0.0387879 0.995558 0.5
593 2 0.0338814 0.995558 0.5
594 2 0.0289749 0.995558 0.5
595 2 0.0240684 0.995558 0.5
596 2 0.0191619 0.995558 0.5
597 2 0.0142553 0.995558 0.5
598 2 0.00934883 0.995558 0.5
599 2 0.00444232 0.995558 0.5
600 2 0.995558 0.990651 0.5
601 2 0.990651 0.990651 0.5
602 2 0.985745 0.990651 0.5
603 2 0.980838 0.990651 0.5
604 2 0.975932 0.990651 0.5
605 2 0.971025 0.990651 0.5
606 2 0.966119 0.990651 0.5
607 2 0.961212 0.990651 0.5
608 2 0.956306 0.990651 0.5
609 2 0.951399 0.990651 0.5
610 2 0.946493 0.990651 0.5
611 2 0.941586 0.990651 0.5
612 2 0.93668 0.990651 0.5
613 2 0.931773 0.990651 0.5
614 2 0.926867 0.990651 0.5
615 2 0.92196 0.990651 0.5
616 2 0.917053 0.990651 0.5
617 2 0.912147 0.990651 0.5
618 2 0.352805 0.0142553 0.5
619 2 0.357711 0.0142553 0.5
620 2 0.362618 0.0142553 0.5
621 2 0.367524 0.0142553 0.5
622 2 0.372431 0.0142553 0.5
623 2 0.377337 0.0142553 0.5
624 2 0.382244 0.0142553 0.5
625 2 0.38715 0.0142553 0.5
626 2 0.392057 0.0142553 0.5
627 2 0.396963 0.0142553 0.5
628 2 0.40187 0.0142553 0.5
629 2 0.406776 0.0142553 0.5
630 2 0.411683 0.0142553 0.5
631 2 0.416589 0.0142553 0.5
632 2 0.421496 0.0142553 0.5
633 2 0.426402 0.0142553 0.5
634 2 0.431309 0.0142553 0.5
635 2 0.436215 0.0142553 0.5
636 2 0.441122 0.0142553 0.5
637 2 0.446028 0.0142553 0.5
638 2 0.450935 0.0142553 0.5
639 2 0.455841 0.0142553 0.5
640 2 0.460748 0.0142553 0.5
641 2 0.465654 0.0142553 0.5
642 2 0.470561 0.0142553 0.5
643 2 0.475467 0.0142553 0.5
644 2 0.480374 0.0142553 0.5
645 2 0.48528 0.0142553 0.5
646 2 0.490187 0.0142553 0.5
647 2 0.495093 0.0142553 0.5
648 2 0.5 0.0142553 0.5
649 2 0.504907 0.0142553 0.5
650 2 0.509813 0.0142553 0.5
651 2 0.51472 0.0142553 0.5
652 2 0.519626 0.0142553 0.5
653 2 0.524533 0.0142553 0.5
654 2 0.529439 0.0142553 0.5
655 2 0.534346 0.0142553 0.5
656 2 0.539252 0.0142553 0.5
657 2 0.544159 0.0142553 0.5
658 2 0.549065 0.0142553 0.5
659 2 0.553972 0.0142553 0.5
660 2 0.558878 0.0142553 0.5
661 2 0.563785 0.0142553 0.5
662 2 0.568691 0.0142553 0.5
663 2 0.573598 0.0142553 0.5
664 2 0.578504 0.0142553 0.5
665 2 0.583411 0.0142553 0.5
666 2 0.588317 0.0142553 0.5
667 2 0.593224 0.0142553 0.5
668 2 0.59813 0.0142553 0.5
669 2 0.603037 0.0142553 0.5
670 2 0.607943 0.0142553 0.5
671 2 0.61285 0.0142553 0.5
672 2 0.617756 0.0142553 0.5
673 2 0.622663 0.0142553 0.5
674 2 0.627569 0.0142553 0.5
675 2 0.632476 0.0142553 0.5
676 2 0.637382 0.0142553 0.5
677 2 0.642289 0.0142553 0.5
678 2 0.647195 0.0142553 0.5
679 2 0.652102 0.0142553 0.5
680 2 0.657008 0.0142553 0.5
681 2 0.661915 0.0142553 0.5
682 2 0.666821 0.0142553 0.5
683 2 0.671728 0.0142553 0.5
684 2 0.676634 0.0142553 0.5
685 2 0.681541 0.0142553 0.5
686 2 0.686447 0.0142553 0.5
687 2 0.691354 0.0142553 0.5
688 2 0.69626 0.0142553 0.5
689 2 0.701167 0.0142553 0.5
690 2 0.706073 0.0142553 0.5
691 2 0.71098 0.0142553 0.5
692 2 0.715887 0.0142553 0.5
693 2 0.720793 0.0142553 0.5
694 2 0.7257 0.0142553 0.5
695 2 0.730606 0.0142553 0.5
696 2 0.735513 0.0142553 0.5
697 2 0.740419 0.0142553 0.5
698 2 0.745326 0.0142553 0.5
699 2 0.750232 0.0142553 0.5
700 2 0.755139 0.0142553 0.5
701 2 0.760045 0.0142553 0.5
702 2 0.764952 0.0142553 0.5
703 2 0.769858 0.0142553 0.5
704 2 0.774765 0.0142553 0.5
705 2 0.779671 0.0142553 0.5
706 2 0.784578 0.0142553 0.5
707 2 0.789484 0.0142553 0.5
708 2 0.794391 0.0142553 0.5
709 2 0.799297 0.0142553 0.5
710 2 0.804204 0.0142553 0.5
711 2 0.80911 0.0142553 0.5
712 2 0.814017 0.0142553 0.5
713 2 0.818923 0.0142553 0.5
714 2 0.82383 0.0142553 0.5
715 2 0.828736 0.0142553 0.5
716 2 0.833643 0.0142553 0.5
717 2 0.838549 0.0142553 0.5
718 2 0.843456 0.0142553 0.5
719 2 0.848362 0.0142553 0.5
720 2 0.853269 0.0142553 0.5
721 2 0.858175 0.0142553 0.5
722 2 0.863082 0.0142553 0.5
723 2 0.867988 0.0142553 0.5
724 2 0.872895 0.0142553 0.5
725 2 0.877801 0.0142553 0.5
726 2 0.882708 0.0142553 0.5
727 2 0.887614 0.0142553 0.5
728 2 0.892521 0.0142553 0.5
729 2 0.897427 0.0142553 0.5
730 2 0.902334 0.0142553 0.5
731 2 0.90724 0.0142553 0.5
732 2 0.912147 0.0142553 0.5
733 2 0.917053 0.0142553 0.5
734 2 0.92196 0.0142553 0.5
735 2 0.926867 0.0142553 0.5
736 2 0.931773 0.0142553 0.5
737 2 0.93668 0.0142553 0.5
738 2 0.941586 0.0142553 0.5
739 2 0.946493 0.0142553 0.5
740 2 0.951399 0.0142553 0.5
741 2 0.956306 0.0142553 0.5
742 2 0.961212 0.0142553 0.5
743 2 0.966119 0.0142553 0.5
744 2 0.971025 0.0142553 0.5
745 2 0.975932 0.0142553 0.5
746 2 0.980838 0.0142553 0.5
747 2 0.985745 0.0142553 0.5
748 2 0.990651 0.0142553 0.5
749 2 0.995558 0.0142553 0.5
750 2 0.00444232 0.0191619 0.5
751 2 0.00934883 0.0191619 0.5
752 2 0.0142553 0.0191619 0.5
753 2 0.0191619 0.0191619 0.5
754 2 0.0240684 0.0191619 0.5
755 2 0.0289749 0.0191619 0.5
756 2 0.0338814 0.0191619 0.5
757 2 0.0387879 0.0191619 0.5
758 2 0.0436944 0.0191619 0.5
759 2 0.0486009 0.0191619 0.5
760 2 0.0535074 0.0191619 0.5
761 2 0.0584139 0.0191619 0.5
762 2 0.0633205 0.0191619 0.5
763 2 0.068227 0.0191619 0.5
764 2 0.0731335 0.0191619 0.5
765 2 0.90724 0.990651 0.5
766 2 0.902334 0.990651 0.5
767 2 0.897427 0.990651 0.5
768 2 0.892521 0.990651 0.5
769 2 0.887614 0.990651 0.5
770 2 0.882708 0.990651 0.5
771 2 0.877801 0.990651 0.5
772 2 0.872895 0.990651 0.5
773 2 0.867988 0.990651 0.5
774 2 0.863082 0.990651 0.5
775 2 0.858175 0.990651 0.5
776 2 0.853269 0.990651 0.5
777 2 0.848362 0.990651 0.5
778 2 0.843456 0.990651 0.5
779 2 0.838549 0.990651 0.5
780 2 0.833643 0.990651 0.5
781 2 0.828736 0.990651 0.5
782 2 0.82383 0.990651 0.5
783 2 0.818923 0.990651 0.5
784 2 0.814017 0.990651 0.5
785 2 0.80911 0.990651 0.5
786 2 0.804204 0.990651 0.5
787 2 0.799297 0.990651 0.5
788 2 0.794391 0.990651 0.5
789 2 0.789484 0.990651 0.5
790 2 0.784578 0.990651 0.5
791 2 0.779671 0.990651 0.5
792 2 0.774765 0.990651 0.5
793 2 0.769858 0.990651 0.5
794 2 0.764952 0.990651 0.5
795 2 0.760045 0.990651 0.5
796 2 0.755139 0.990651 0.5
797 2 0.750232 0.990651 0.5
798 2 0.745326 0.990651 0.5
799 2 0.740419 0.990651 0.5
800 2 0.735513 0.990651 0.5
801 2 0.730606 0.990651 0.5
802 2 0.7257 0.990651 0.5
803 2 0.720793 0.990651 0.5
804 2 0.715887 0.990651 0.5
805 2 0.71098 0.990651 0.5
806 2 0.706073 0.990651 0.5
807 2 0.701167 0.990651 0.5
808 2 0.69626 0.990651 0.5
809 2 0.691354 0.990651 0.5
810 2 0.686447 0.990651 0.5
811 2 0.681541 0.990651 0.5
812 2 0.676634 0.990651 0.5
813 2 0.671728 0.990651 0.5
814 2 0.666821 0.990651 0.5
815 2 0.661915 0.990651 0.5
816 2 0.657008 0.990651 0.5
817 2 0.652102 0.990651 0.5
818 2 0.647195 0.990651 0.5
819 2 0.642289 0.990651 0.5
820 2 0.637382 0.990651 0.5
821 2 0.352805 0.0191619 0.5
822 2 0.357711 0.0191619 0.5
823 2 0.362618 0.0191619 0.5
824 2 0.367524 0.0191619 0.5
825 2 0.372431 0.0191619 0.5
826 2 0.377337 0.0191619 0.5
827 2 0.382244 0.0191619 0.5
828 2 0.38715 0.0191619 0.5
829 2 0.392057 0.0191619 0.5
830 2 0.396963 0.0191619 0.5
831 2 0.40187 0.0191619 0.5
832 2 0.406776 0.0191619 0.5
833 2 0.411683 0.0191619 0.5
834 2 0.416589 0.0191619 0.5
835 2 0.421496 0.0191619 0.5
836 2 0.426402 0.0191619 0.5
837 2 0.431309 0.0191619 0.5
838 2 0.436215 0.0191619 0.5
839 2 0.441122 0.0191619 0.5
840 2 0.446028 0.0191619 0.5
841 2 0.450935 0.0191619 0.5
842 2 0.455841 0.0191619 0.5
843 2 0.460748 0.0191619 0.5
844 2 0.465654 0.0191619 0.5
845 2 0.470561 0.0191619 0.5
846 2 0.475467 0.0191619 0.5
847 2 0.480374 0.0191619 0.5
848 2 0.48528 0.0191619 0.5
849 2 0.490187 0.0191619 0.5
850 2 0.495093 0.0191619 0.5
851 2 0.5 0.0191619 0.5
852 2 0.504907 0.0191619 0.5
853 2 0.509813 0.0191619 0.5
854 2 0.51472 0.0191619 0.5
855 2 0.519626 0.0191619 0.5
856 2 0.524533 0.0191619 0.5
857 2 0.529439 0.0191619 0.5
858 2 0.534346 0.0191619 0.5
859 2 0.539252 0.0191619 0.5
860 2 0.544159 0.0191619 0.5
861 2 0.549065 0.0191619 0.5
862 2 0.553972 0.0191619 0.5
863 2 0.558878 0.0191619 0.5
864 2 0.563785 0.0191619 0.5
865 2 0.568691 0.0191619 0.5
866 2 0.573598 0.0191619 0.5
867 2 0.578504 0.0191619 0.5
868 2 0.583411 0.0191619 0.5
869 2 0.588317 0.0191619 0.5
870 2 0.593224 0.0191619 0.5
871 2 0.59813 0.0191619 0.5
872 2 0.603037 0.0191619 0.5
873 2 0.607943 0.0191619 0.5
874 2 0.61285 0.0191619 0.5
875 2 0.617756 0.0191619 0.5
876 2 0.622663 0.0191619 0.5
877 2 0.627569 0.0191619 0.5
878 2 0.632476 0.0191619 0.5
879 2 0.637382 0.0191619 0.5
880 2 0.642289 0.0191619 0.5
881 2 0.647195 0.0191619 0.5
882 2 0.652102 0.0191619 0.5
883 2 0.657008 0.0191619 0.5
884 2 0.661915 0.0191619 0.5
885 2 0.666821 0.0191619 0.5
886 2 0.671728 0.0191619 0.5
887 2 0.676634 0.0191619 0.5
888 2 0.681541 0.0191619 0.5
889 2 0.686447 0.0191619 0.5
890 2 0.691354 0.0191619 0.5
891 2 0.69626 0.0191619 0.5
892 2 0.701167 0.0191619 0.5
893 2 0.706073 0.0191619 0.5
894 2 0.71098 0.0191619 0.5
895 2 0.715887 0.0191619 0.5
896 2 0.720793 0.0191619 0.5
897 2 0.7257 0.0191619 0.5
898 2 0.730606 0.0191619 0.5
899 2 0.735513 0.0191619 0.5
900 2 0.740419 0.0191619 0.5
901 2 0.745326 0.0191619 0.5
902 2 0.750232 0.0191619 0.5
903 2 0.755139 0.0191619 0.5
904 2 0.760045 0.0191619 0.5
905 2 0.764952 0.0191619 0.5
906 2 0.769858 0.0191619 0.5
907 2 0.774765 0.0191619 0.5
908 2 0.779671 0.0191619 0.5
909 2 0.784578 0.0191619 0.5
910 2 0.789484 0.0191619 0.5
911 2 0.794391 0.0191619 0.5
912 2 0.799297 0.0191619 0.5
913 2 0.804204 0.0191619 0.5
914 2 0.80911 0.0191619 0.5
915 2 0.814017 0.0191619 0.5
916 2 0.818923 0.0191619 0.5
917 2 0.82383 0.0191619 0.5
918 2 0.828736 0.0191619 0.5
919 2 0.833643 0.0191619 0.5
920 2 0.838549 0.0191619 0.5
921 2 0.843456 0.0191619 0.5
922 2 0.848362 0.0191619 0.5
923 2 0.853269 0.0191619 0.5
924 2 0.858175 0.0191619 0.5
925 2 0.863082 0.0191619 0.5
926 2 0.867988 0.0191619 0.5
927 2 0.872895 0.0191619 0.5
928 2 0.877801 0.0191619 0.5
929 2 0.882708 0.0191619 0.5
930 2 0.887614 0.0191619 0.5
931 2 0.892521 0.0191619 0.5
932 2 0.897427 0.0191619 0.5
933 2 0.902334 0.0191619 0.5
934 2 0.90724 0.0191619 0.5
935 2 0.912147 0.0191619 0.5
936 2 0.917053 0.0191619 0.5
937 2 0.92196 0.0191619 0.5
938 2 0.926867 0.0191619 0.5
939 2 0.931773 0.0191619 0.5
940 2 0.93668 0.0191619 0.5
941 2 0.941586 0.0191619 0.5
942 2 0.946493 0.0191619 0.5
943 2 0.951399 0.0191619 0.5
944 2 0.956306 0.0191619 0.5
945 2 0.961212 0.0191619 0.5
946 2 0.966119 0.0191619 0.5
947 2 0.971025 0.0191619 0.5
948 2 0.975932 0.0191619 0.5
949 2 0.980838 0.0191619 0.5
950 2 0.985745 0.0191619 0.5
951 2 0.990651 0.0191619 0.5
952 2 0.995558 0.0191619 0.5
953 2 0.00444232 0.0240684 0.5
954 2 0.00934883 0.0240684 0.5
955 2 0.0142553 0.0240684 0.5
956 2 0.0191619 0.0240684 0.5
957 2 0.0240684 0.0240684 0.5
958 2 0.0289749 0.0240684 0.5
959 2 0.0338814 0.0240684 0.5
960 2 0.0387879 0.0240684 0.5
961 2 0.0436944 0.0240684 0.5
962 2 0.0486009 0.0240684 0.5
963 2 0.0535074 0.0240684 0.5
964 2 0.0584139 0.0240684 0.5
965 2 0.0633205 0.0240684 0.5
966 2 0.068227 0.0240684 0.5
967 2 0.0731335 0.0240684 0.5
968 2 0.632476 0.990651 0.5
969 2 0.627569 0.990651 0.5
970 2 0.622663 0.990651 0.5
971 2 0.617756 0.990651 0.5
972 2 0.61285 0.990651 0.5
973 2 0.607943 0.990651 0.5
974 2 0.603037 0.990651 0.5
975 2 0.59813 0.990651 0.5
976 2 0.593224 0.990651 0.5
977 2 0.588317 0.990651 0.5
978 2 0.583411 0.990651 0.5
979 2 0.578504 0.990651 0.5
980 2 0.573598 0.990651 0.5
981 2 0.568691 0.990651 0.5
982 2 0.563785 0.990651 0.5
983 2 0.558878 0.990651 0.5
984 2 0.553972 0.990651 0.5
985 2 0.549065 0.990651 0.5
986 2 0.544159 0.990651 0.5
987 2 0.539252 0.990651 0.5
988 2 0.534346 0.990651 0.5
989 2 0.529439 0.990651 0.5
990 2 0.524533 0.990651 0.5
991 2 0.519626 0.990651 0.5
992 2 0.51472 0.990651 0.5
993 2 0.509813 0.990651 0.5
994 2 0.504907 0.990651 0.5
995 2 0.5 0.990651 0.5
996 2 0.495093 0.990651 0.5
997 2 0.490187 0.990651 0.5
998 2 0.48528 0.990651 0.5
999 2 0.480374 0.990651 0.5
1000 2 0.475467 0.990651 0.5
1001 2 0.470561 0.990651 0.5
1002 2 0.465654 0.990651 0.5
1003 2 0.460748 0.990651 0.5
1004 2 0.455841 0.990651 0.5
1005 2 0.450935 0.990651 0.5
1006 2 0.446028 0.990651 0.5
1007 2 0.441122 0.990651 0.5
1008 2 0.436215 0.990651 0.5
1009 2 0.431309 0.990651 0.5
1010 2 0.426402 0.990651 0.5
1011 2 0.421496 0.990651 0.5
1012 2 0.416589 0.990651 0.5
1013 2 0.411683 0.990651 0.5
1014 2 0.406776 0.990651 0.5
1015 2 0.40187 0.990651 0.5
1016 2 0.396963 0.990651 0.5
1017 2 0.392057 0.990651 0.5
1018 2 0.38715 0.990651 0.5
1019 2 0.382244 0.990651 0.5
1020 2 0.377337 0.990651 0.5
1021 2 0.372431 0.990651 0.5
1022 2 0.367524 0.990651 0.5
1023 2 0.362618 0.990651 0.5
1024 2 0.352805 0.0240684 0.5
1025 2 0.357711 0.0240684 0.5
1026 2 0.362618 0.0240684 0.5
1027 2 0.367524 0.0240684 0.5
1028 2 0.372431 0.0240684 0.5
1029 2 0.377337 0.0240684 0.5
1030 2 0.382244 0.0240684 0.5
1031 2 0.38715 0.0240684 0.5
1032 2 0.392057 0.0240684 0.5
1033 2 0.396963 0.0240684 0.5